                               Psi4 1.9.1 release

  ==> Input File <==

--------------------------------------------------------------------------
MEMORY 10 GB

molecule dimer {
0 1
C    2.303132   0.769097   0.598623
C    1.771037  -0.610986   0.306818
O    1.096965  -0.672425  -0.955992
H    1.720340  -0.407252  -1.638962
H    2.779410   0.788335   1.576531
H    1.492158   1.491832   0.589266
H    3.046547   1.060996  -0.141675
H    1.016509  -0.890517   1.035624
H    2.564219  -1.357732   0.335502
--
0 1
C   -1.650825  -1.261172   0.511575
C   -1.785969  -0.008614  -0.323983
O   -0.574509   0.723337  -0.392210
H    0.094003   0.137656  -0.776128
H   -2.601194  -1.788706   0.572988
H   -1.329157  -1.008249   1.518936
H   -0.918174  -1.934185   0.070549
H   -2.518005   0.663315   0.116807
H   -2.135832  -0.264998  -1.326644

units ang
no_reorient
no_com
symmetry c1
}

set {
basis        aug-cc-pVTZ
scf_type     df
}

energy("sapt2+")
--------------------------------------------------------------------------

  //              Dimer HF             //
    Molecular point group: c1
  Charge       = 0
  Multiplicity = 1
  Basis Set: AUG-CC-PVTZ
    Blend: AUG-CC-PVTZ
  Basis Set: (AUG-CC-PVTZ AUX)
    Blend: AUG-CC-PVTZ-JKFIT
  @DF-RHF Final Energy:  -308.25996965796242
    Total Energy =                       -308.2599696579624151
 Dipole X            :        -20.1172981           21.1927532            1.0754550
 Dipole Y            :         17.8845792          -18.4668931           -0.5823140
 Dipole Z            :          4.2612799           -4.3362109           -0.0749311
 Magnitude           :                                                    1.2252786
  //            Monomer A HF           //
    Molecular point group: c1
  Multiplicity = 1
  Basis Set: AUG-CC-PVTZ
    Blend: AUG-CC-PVTZ
  Basis Set: (AUG-CC-PVTZ AUX)
    Blend: AUG-CC-PVTZ-JKFIT
  @DF-RHF Final Energy:  -154.14499812223005
    Total Energy =                       -154.1449981222300494
  //            Monomer B HF           //
    Molecular point group: c1

    Geometry (in Angstrom), charge = 0, multiplicity = 1:

       Center              X                  Y                   Z               Mass
    ------------   -----------------  -----------------  -----------------  -----------------
      Gh(C)           2.303132000000     0.769097000000     0.598623000000    12.000000000000
      Gh(C)           1.771037000000    -0.610986000000     0.306818000000    12.000000000000
      Gh(O)           1.096965000000    -0.672425000000    -0.955992000000    15.994914619570
      Gh(H)           1.720340000000    -0.407252000000    -1.638962000000     1.007825032230
      Gh(H)           2.779410000000     0.788335000000     1.576531000000     1.007825032230
      Gh(H)           1.492158000000     1.491832000000     0.589266000000     1.007825032230
      Gh(H)           3.046547000000     1.060996000000    -0.141675000000     1.007825032230
      Gh(H)           1.016509000000    -0.890517000000     1.035624000000     1.007825032230
      Gh(H)           2.564219000000    -1.357732000000     0.335502000000     1.007825032230
         C           -1.650825000000    -1.261172000000     0.511575000000    12.000000000000
         C           -1.785969000000    -0.008614000000    -0.323983000000    12.000000000000
         O           -0.574509000000     0.723337000000    -0.392210000000    15.994914619570
         H            0.094003000000     0.137656000000    -0.776128000000     1.007825032230
         H           -2.601194000000    -1.788706000000     0.572988000000     1.007825032230
         H           -1.329157000000    -1.008249000000     1.518936000000     1.007825032230
         H           -0.918174000000    -1.934185000000     0.070549000000     1.007825032230
         H           -2.518005000000     0.663315000000     0.116807000000     1.007825032230
         H           -2.135832000000    -0.264998000000    -1.326644000000     1.007825032230

  Charge       = 0
  Multiplicity = 1
  Basis Set: AUG-CC-PVTZ
    Blend: AUG-CC-PVTZ
  Basis Set: (AUG-CC-PVTZ AUX)
    Blend: AUG-CC-PVTZ-JKFIT

    Orbital Energies [Eh]
    ---------------------

    Doubly Occupied:

       1A    -20.555941     2A    -11.272333     3A    -11.216807
       4A     -1.358209     5A     -1.014832     6A     -0.848156
       7A     -0.686909     8A     -0.625168     9A     -0.609667
      10A     -0.545447    11A     -0.527096    12A     -0.482954
      13A     -0.443103

  @DF-RHF Final Energy:  -154.14499304122799

   => Energetics <=

    Nuclear Repulsion Energy =             82.0794934895352810
    One-Electron Energy =                -372.0757278736573426
    Two-Electron Energy =                 135.8512413428940988
    Total Energy =                       -154.1449930412279912
 Dipole X            :         65.2974217          -65.4321356           -0.1347139
 Dipole Y            :         10.6963773          -11.3897327           -0.6933555
 Dipole Z            :          3.3035336           -3.4688191           -0.1652855
 Magnitude           :                                                    0.7254026

    SAPT Results
  --------------------------------------------------------------------------------------------------------
    Electrostatics                -67.24834826 [mEh]     -42.19897563 [kcal/mol]    -176.56051402 [kJ/mol]
      Elst10,r                    -64.49342932 [mEh]     -40.47023790 [kcal/mol]    -169.32747536 [kJ/mol]
      Elst12,r                     -2.75491893 [mEh]      -1.72873773 [kcal/mol]      -7.23303866 [kJ/mol]

    Exchange                      140.25392525 [mEh]      88.01066683 [kcal/mol]     368.23663001 [kJ/mol]
      Exch10                      129.09757370 [mEh]      81.00995054 [kcal/mol]     338.94563306 [kJ/mol]
      Exch10(S^2)                 122.69573478 [mEh]      76.99273597 [kcal/mol]     322.13760729 [kJ/mol]
      Exch11(S^2)                   0.58699587 [mEh]       0.36834547 [kcal/mol]       1.54115743 [kJ/mol]
      Exch12(S^2)                  10.56935568 [mEh]       6.63237082 [kcal/mol]      27.74983952 [kJ/mol]

    Induction                     -37.88183228 [mEh]     -23.77120864 [kcal/mol]     -99.45873694 [kJ/mol]
      Ind20,r                     -69.12402479 [mEh]     -43.37598042 [kcal/mol]    -181.48510209 [kJ/mol]
      Ind22                       -10.36717325 [mEh]      -6.50549943 [kcal/mol]     -27.21900961 [kJ/mol]
      Exch-Ind20,r                 47.12636732 [mEh]      29.57224196 [kcal/mol]     123.73026034 [kJ/mol]
      Exch-Ind22                    7.06797985 [mEh]       4.43522432 [kcal/mol]      18.55697854 [kJ/mol]
      delta HF,r (2)              -12.58498141 [mEh]      -7.89719506 [kcal/mol]     -33.04186413 [kJ/mol]

    Dispersion                    -26.25456301 [mEh]     -16.47498702 [kcal/mol]     -68.93134568 [kJ/mol]
      Disp20                      -31.52073210 [mEh]     -19.77955801 [kcal/mol]     -82.75767072 [kJ/mol]
      Disp21                        3.41892501 [mEh]       2.14540783 [kcal/mol]       8.97638637 [kJ/mol]
      Disp22 (SDQ)                 -0.53460017 [mEh]      -0.33546667 [kcal/mol]      -1.40359256 [kJ/mol]
      Disp22 (T)                   -4.42616618 [mEh]      -2.77746121 [kcal/mol]     -11.62089770 [kJ/mol]
      Est. Disp22 (T)              -4.90042314 [mEh]      -3.07506194 [kcal/mol]     -12.86605918 [kJ/mol]
      Exch-Disp20                   7.28226739 [mEh]       4.56969178 [kcal/mol]      19.11959041 [kJ/mol]

  Total HF                         30.02150550 [mEh]      18.83877912 [kcal/mol]      78.82145182 [kJ/mol]
  Total SAPT0                       5.78304079 [mEh]       3.62891289 [kcal/mol]      15.18337151 [kJ/mol]
  Total SAPT2                      10.88528001 [mEh]       6.83061633 [kcal/mol]      28.57929874 [kJ/mol]
  Total SAPT2+                      8.86918171 [mEh]       5.56549555 [kcal/mol]      23.28603337 [kJ/mol]

  Special recipe for scaled SAPT0 (see Manual):
    Electrostatics sSAPT0         -64.49342932 [mEh]     -40.47023790 [kcal/mol]    -169.32747536 [kJ/mol]
    Exchange sSAPT0               129.09757370 [mEh]      81.00995054 [kcal/mol]     338.94563306 [kJ/mol]
    Induction sSAPT0              -26.81438320 [mEh]     -16.82627949 [kcal/mol]     -70.40115340 [kJ/mol]
    Dispersion sSAPT0             -23.03806420 [mEh]     -14.45660354 [kcal/mol]     -60.48642922 [kJ/mol]
  Total sSAPT0                     14.75169698 [mEh]       9.25682961 [kcal/mol]      38.73057507 [kJ/mol]
  --------------------------------------------------------------------------------------------------------

*** Psi4 exiting successfully. Buy a developer a beer!
