                               Psi4 1.9.1 release

  ==> Input File <==

--------------------------------------------------------------------------
MEMORY 10 GB

molecule dimer {
0 1
C    2.303132   0.769097   0.598623
C    1.771037  -0.610986   0.306818
O    1.096965  -0.672425  -0.955992
H    1.720340  -0.407252  -1.638962
H    2.779410   0.788335   1.576531
H    1.492158   1.491832   0.589266
H    3.046547   1.060996  -0.141675
H    1.016509  -0.890517   1.035624
H    2.564219  -1.357732   0.335502
--
0 1
C   -2.277628  -0.737761   0.722993
C   -2.412772   0.514797  -0.112565
O   -1.201312   1.246748  -0.180792
H   -0.532800   0.661067  -0.564710
H   -3.227997  -1.265295   0.784406
H   -1.955960  -0.484838   1.730354
H   -1.544977  -1.410774   0.281967
H   -3.144808   1.186726   0.328225
H   -2.762635   0.258413  -1.115226

units ang
no_reorient
no_com
symmetry c1
}

set {
basis        aug-cc-pVTZ
scf_type     df
}

energy("sapt2+")
--------------------------------------------------------------------------

  //              Dimer HF             //
    Molecular point group: c1
  Charge       = 0
  Multiplicity = 1
  Basis Set: AUG-CC-PVTZ
    Blend: AUG-CC-PVTZ
  Basis Set: (AUG-CC-PVTZ AUX)
    Blend: AUG-CC-PVTZ-JKFIT
  @DF-RHF Final Energy:  -308.29496136588227
    Total Energy =                       -308.2949613658822727
 Dipole X            :         10.3346550           -9.6038830            0.7307721
 Dipole Y            :         -7.7500705            7.2497963           -0.5002742
 Dipole Z            :         -6.0719751            6.0513641           -0.0206109
 Magnitude           :                                                    0.8858481
  //            Monomer A HF           //
    Molecular point group: c1
  Multiplicity = 1
  Basis Set: AUG-CC-PVTZ
    Blend: AUG-CC-PVTZ
  Basis Set: (AUG-CC-PVTZ AUX)
    Blend: AUG-CC-PVTZ-JKFIT
  @DF-RHF Final Energy:  -154.14486993031539
    Total Energy =                       -154.1448699303153944
  //            Monomer B HF           //
    Molecular point group: c1

    Geometry (in Angstrom), charge = 0, multiplicity = 1:

       Center              X                  Y                   Z               Mass
    ------------   -----------------  -----------------  -----------------  -----------------
      Gh(C)           2.303132000000     0.769097000000     0.598623000000    12.000000000000
      Gh(C)           1.771037000000    -0.610986000000     0.306818000000    12.000000000000
      Gh(O)           1.096965000000    -0.672425000000    -0.955992000000    15.994914619570
      Gh(H)           1.720340000000    -0.407252000000    -1.638962000000     1.007825032230
      Gh(H)           2.779410000000     0.788335000000     1.576531000000     1.007825032230
      Gh(H)           1.492158000000     1.491832000000     0.589266000000     1.007825032230
      Gh(H)           3.046547000000     1.060996000000    -0.141675000000     1.007825032230
      Gh(H)           1.016509000000    -0.890517000000     1.035624000000     1.007825032230
      Gh(H)           2.564219000000    -1.357732000000     0.335502000000     1.007825032230
         C           -2.277628000000    -0.737761000000     0.722993000000    12.000000000000
         C           -2.412772000000     0.514797000000    -0.112565000000    12.000000000000
         O           -1.201312000000     1.246748000000    -0.180792000000    15.994914619570
         H           -0.532800000000     0.661067000000    -0.564710000000     1.007825032230
         H           -3.227997000000    -1.265295000000     0.784406000000     1.007825032230
         H           -1.955960000000    -0.484838000000     1.730354000000     1.007825032230
         H           -1.544977000000    -1.410774000000     0.281967000000     1.007825032230
         H           -3.144808000000     1.186726000000     0.328225000000     1.007825032230
         H           -2.762635000000     0.258413000000    -1.115226000000     1.007825032230

  Charge       = 0
  Multiplicity = 1
  Basis Set: AUG-CC-PVTZ
    Blend: AUG-CC-PVTZ
  Basis Set: (AUG-CC-PVTZ AUX)
    Blend: AUG-CC-PVTZ-JKFIT

    Orbital Energies [Eh]
    ---------------------

    Doubly Occupied:

       1A    -20.555999     2A    -11.272336     3A    -11.216811
       4A     -1.358237     5A     -1.014839     6A     -0.848163
       7A     -0.686913     8A     -0.625178     9A     -0.609677
      10A     -0.545453    11A     -0.527103    12A     -0.482961
      13A     -0.443117

  @DF-RHF Final Energy:  -154.14489225053597

   => Energetics <=

    Nuclear Repulsion Energy =             82.0794934895352668
    One-Electron Energy =                -372.0751925191662508
    Two-Electron Energy =                 135.8508067790950236
    Total Energy =                       -154.1448922505359747
 Dipole X            :         96.0939132          -96.2287717           -0.1348585
 Dipole Y            :        -15.0203552           14.3269567           -0.6933985
 Dipole Z            :         -7.0840525            6.9187560           -0.1652965
 Magnitude           :                                                    0.7254731

    SAPT Results
  --------------------------------------------------------------------------------------------------------
    Electrostatics                -11.01007938 [mEh]      -6.90892912 [kcal/mol]     -28.90695942 [kJ/mol]
      Elst10,r                    -10.74375652 [mEh]      -6.74180900 [kcal/mol]     -28.20772884 [kJ/mol]
      Elst12,r                     -0.26632286 [mEh]      -0.16712012 [kcal/mol]      -0.69923057 [kJ/mol]

    Exchange                        9.87728354 [mEh]       6.19808900 [kcal/mol]      25.93280436 [kJ/mol]
      Exch10                        8.18590499 [mEh]       5.13673293 [kcal/mol]      21.49209058 [kJ/mol]
      Exch10(S^2)                   8.15491157 [mEh]       5.11728427 [kcal/mol]      21.41071738 [kJ/mol]
      Exch11(S^2)                   0.08071028 [mEh]       0.05064647 [kcal/mol]       0.21190482 [kJ/mol]
      Exch12(S^2)                   1.61066827 [mEh]       1.01070960 [kcal/mol]       4.22880896 [kJ/mol]

    Induction                      -2.94298476 [mEh]      -1.84675082 [kcal/mol]      -7.72680543 [kJ/mol]
      Ind20,r                      -3.65349254 [mEh]      -2.29260118 [kcal/mol]      -9.59224335 [kJ/mol]
      Ind22                        -0.66707227 [mEh]      -0.41859417 [kcal/mol]      -1.75139799 [kJ/mol]
      Exch-Ind20,r                  2.00137674 [mEh]       1.25588287 [kcal/mol]       5.25461391 [kJ/mol]
      Exch-Ind22                    0.36542101 [mEh]       0.22930514 [kcal/mol]       0.95941272 [kJ/mol]
      delta HF,r (2)               -0.98921770 [mEh]      -0.62074348 [kcal/mol]      -2.59719071 [kJ/mol]

    Dispersion                     -6.62651336 [mEh]      -4.15819991 [kcal/mol]     -17.39790842 [kJ/mol]
      Disp20                       -6.61500427 [mEh]      -4.15097785 [kcal/mol]     -17.36769131 [kJ/mol]
      Disp21                        0.42375570 [mEh]       0.26591072 [kcal/mol]       1.11257044 [kJ/mol]
      Disp22 (SDQ)                 -0.04649573 [mEh]      -0.02917651 [kcal/mol]      -0.12207453 [kJ/mol]
      Disp22 (T)                   -1.04101330 [mEh]      -0.65324571 [kcal/mol]      -2.73318003 [kJ/mol]
      Est. Disp22 (T)              -1.16715113 [mEh]      -0.73239839 [kcal/mol]      -3.06435487 [kJ/mol]
      Exch-Disp20                   0.77838207 [mEh]       0.48844212 [kcal/mol]       2.04364185 [kJ/mol]

  Total HF                         -5.19918503 [mEh]      -3.26253786 [kcal/mol]     -13.65045842 [kJ/mol]
  Total SAPT0                     -11.03580723 [mEh]      -6.92507359 [kcal/mol]     -28.97450788 [kJ/mol]
  Total SAPT2                      -9.91240279 [mEh]      -6.22012666 [kcal/mol]     -26.02500995 [kJ/mol]
  Total SAPT2+                    -10.70229396 [mEh]      -6.71579085 [kcal/mol]     -28.09886891 [kJ/mol]

  Special recipe for scaled SAPT0 (see Manual):
    Electrostatics sSAPT0         -10.74375652 [mEh]      -6.74180900 [kcal/mol]     -28.20772884 [kJ/mol]
    Exchange sSAPT0                 8.18590499 [mEh]       5.13673293 [kcal/mol]      21.49209058 [kJ/mol]
    Induction sSAPT0               -2.61842747 [mEh]      -1.64308804 [kcal/mol]      -6.87468038 [kJ/mol]
    Dispersion sSAPT0              -5.82771351 [mEh]      -3.65694544 [kcal/mol]     -15.30065970 [kJ/mol]
  Total sSAPT0                    -11.00399251 [mEh]      -6.90510955 [kcal/mol]     -28.89097835 [kJ/mol]
  --------------------------------------------------------------------------------------------------------

*** Psi4 exiting successfully. Buy a developer a beer!
