                               Psi4 1.9.1 release

  ==> Input File <==

--------------------------------------------------------------------------
MEMORY 10 GB

molecule dimer {
0 1
C    2.303132   0.769097   0.598623
C    1.771037  -0.610986   0.306818
O    1.096965  -0.672425  -0.955992
H    1.720340  -0.407252  -1.638962
H    2.779410   0.788335   1.576531
H    1.492158   1.491832   0.589266
H    3.046547   1.060996  -0.141675
H    1.016509  -0.890517   1.035624
H    2.564219  -1.357732   0.335502
--
0 1
C   -2.486563  -0.563290   0.793465
C   -2.621707   0.689268  -0.042093
O   -1.410247   1.421219  -0.110320
H   -0.741735   0.835538  -0.494238
H   -3.436932  -1.090824   0.854878
H   -2.164895  -0.310367   1.800826
H   -1.753912  -1.236303   0.352439
H   -3.353743   1.361197   0.398697
H   -2.971570   0.432884  -1.044754

units ang
no_reorient
no_com
symmetry c1
}

set {
basis        aug-cc-pVTZ
scf_type     df
}

energy("sapt2+")
--------------------------------------------------------------------------

  //              Dimer HF             //
    Molecular point group: c1
  Charge       = 0
  Multiplicity = 1
  Basis Set: AUG-CC-PVTZ
    Blend: AUG-CC-PVTZ
  Basis Set: (AUG-CC-PVTZ AUX)
    Blend: AUG-CC-PVTZ-JKFIT
  @DF-RHF Final Energy:  -308.29453221869238
    Total Energy =                       -308.2945322186923818
 Dipole X            :         20.5571491          -19.8694611            0.6876880
 Dipole Y            :        -16.3138049           15.8220589           -0.4917460
 Dipole Z            :         -9.5257759            9.5138564           -0.0119195
 Magnitude           :                                                    0.8455005
  //            Monomer A HF           //
    Molecular point group: c1
  Multiplicity = 1
  Basis Set: AUG-CC-PVTZ
    Blend: AUG-CC-PVTZ
  Basis Set: (AUG-CC-PVTZ AUX)
    Blend: AUG-CC-PVTZ-JKFIT
  @DF-RHF Final Energy:  -154.14485873308519
    Total Energy =                       -154.1448587330851865
  //            Monomer B HF           //
    Molecular point group: c1

    Geometry (in Angstrom), charge = 0, multiplicity = 1:

       Center              X                  Y                   Z               Mass
    ------------   -----------------  -----------------  -----------------  -----------------
      Gh(C)           2.303132000000     0.769097000000     0.598623000000    12.000000000000
      Gh(C)           1.771037000000    -0.610986000000     0.306818000000    12.000000000000
      Gh(O)           1.096965000000    -0.672425000000    -0.955992000000    15.994914619570
      Gh(H)           1.720340000000    -0.407252000000    -1.638962000000     1.007825032230
      Gh(H)           2.779410000000     0.788335000000     1.576531000000     1.007825032230
      Gh(H)           1.492158000000     1.491832000000     0.589266000000     1.007825032230
      Gh(H)           3.046547000000     1.060996000000    -0.141675000000     1.007825032230
      Gh(H)           1.016509000000    -0.890517000000     1.035624000000     1.007825032230
      Gh(H)           2.564219000000    -1.357732000000     0.335502000000     1.007825032230
         C           -2.486563000000    -0.563290000000     0.793465000000    12.000000000000
         C           -2.621707000000     0.689268000000    -0.042093000000    12.000000000000
         O           -1.410247000000     1.421219000000    -0.110320000000    15.994914619570
         H           -0.741735000000     0.835538000000    -0.494238000000     1.007825032230
         H           -3.436932000000    -1.090824000000     0.854878000000     1.007825032230
         H           -2.164895000000    -0.310367000000     1.800826000000     1.007825032230
         H           -1.753912000000    -1.236303000000     0.352439000000     1.007825032230
         H           -3.353743000000     1.361197000000     0.398697000000     1.007825032230
         H           -2.971570000000     0.432884000000    -1.044754000000     1.007825032230

  Charge       = 0
  Multiplicity = 1
  Basis Set: AUG-CC-PVTZ
    Blend: AUG-CC-PVTZ
  Basis Set: (AUG-CC-PVTZ AUX)
    Blend: AUG-CC-PVTZ-JKFIT

    Orbital Energies [Eh]
    ---------------------

    Doubly Occupied:

       1A    -20.556010     2A    -11.272335     3A    -11.216812
       4A     -1.358243     5A     -1.014840     6A     -0.848164
       7A     -0.686916     8A     -0.625180     9A     -0.609679
      10A     -0.545454    11A     -0.527104    12A     -0.482963
      13A     -0.443119

  @DF-RHF Final Energy:  -154.14487517051114

   => Energetics <=

    Nuclear Repulsion Energy =             82.0794934895352810
    One-Electron Energy =                -372.0750936841804446
    Two-Electron Energy =                 135.8507250241339932
    Total Energy =                       -154.1448751705111420
 Dipole X            :        106.3594787         -106.4943498           -0.1348711
 Dipole Y            :        -23.5926254           22.8992193           -0.6934061
 Dipole Z            :        -10.5465219           10.3812483           -0.1652737
 Magnitude           :                                                    0.7254775

    SAPT Results
  --------------------------------------------------------------------------------------------------------
    Electrostatics                 -6.86898211 [mEh]      -4.31035135 [kcal/mol]     -18.03451004 [kJ/mol]
      Elst10,r                     -6.84790119 [mEh]      -4.29712287 [kcal/mol]     -17.97916210 [kJ/mol]
      Elst12,r                     -0.02108092 [mEh]      -0.01322847 [kcal/mol]      -0.05534794 [kJ/mol]

    Exchange                        4.11043563 [mEh]       2.57933730 [kcal/mol]      10.79194726 [kJ/mol]
      Exch10                        3.32022794 [mEh]       2.08347449 [kcal/mol]       8.71725725 [kJ/mol]
      Exch10(S^2)                   3.31477723 [mEh]       2.08005412 [kcal/mol]       8.70294642 [kJ/mol]
      Exch11(S^2)                   0.02802315 [mEh]       0.01758479 [kcal/mol]       0.07357476 [kJ/mol]
      Exch12(S^2)                   0.76218454 [mEh]       0.47827802 [kcal/mol]       2.00111524 [kJ/mol]

    Induction                      -1.41861081 [mEh]      -0.89019172 [kcal/mol]      -3.72456217 [kJ/mol]
      Ind20,r                      -1.59099810 [mEh]      -0.99836638 [kcal/mol]      -4.17716494 [kJ/mol]
      Ind22                        -0.26822597 [mEh]      -0.16831434 [kcal/mol]      -0.70422719 [kJ/mol]
      Exch-Ind20,r                  0.71331149 [mEh]       0.44760972 [kcal/mol]       1.87279906 [kJ/mol]
      Exch-Ind22                    0.12025701 [mEh]       0.07546241 [kcal/mol]       0.31573473 [kJ/mol]
      delta HF,r (2)               -0.39295523 [mEh]      -0.24658313 [kcal/mol]      -1.03170382 [kJ/mol]

    Dispersion                     -4.34918154 [mEh]      -2.72915262 [kcal/mol]     -11.41877455 [kJ/mol]
      Disp20                       -4.20034899 [mEh]      -2.63575879 [kcal/mol]     -11.02801476 [kJ/mol]
      Disp21                        0.26536389 [mEh]       0.16651836 [kcal/mol]       0.69671281 [kJ/mol]
      Disp22 (SDQ)                 -0.01547690 [mEh]      -0.00971190 [kcal/mol]      -0.04063460 [kJ/mol]
      Disp22 (T)                   -0.67888719 [mEh]      -0.42600814 [kcal/mol]      -1.78241807 [kJ/mol]
      Est. Disp22 (T)              -0.75333574 [mEh]      -0.47272531 [kcal/mol]      -1.97788271 [kJ/mol]
      Exch-Disp20                   0.35461620 [mEh]       0.22252502 [kcal/mol]       0.93104470 [kJ/mol]

  Total HF                         -4.79831510 [mEh]      -3.01098818 [kcal/mol]     -12.59797455 [kJ/mol]
  Total SAPT0                      -8.64404789 [mEh]      -5.42422194 [kcal/mol]     -22.69494460 [kJ/mol]
  Total SAPT2                      -8.02289008 [mEh]      -5.03443953 [kcal/mol]     -21.06409501 [kJ/mol]
  Total SAPT2+                     -8.52633883 [mEh]      -5.35035839 [kcal/mol]     -22.38589951 [kJ/mol]

  Special recipe for scaled SAPT0 (see Manual):
    Electrostatics sSAPT0          -6.84790119 [mEh]      -4.29712287 [kcal/mol]     -17.97916210 [kJ/mol]
    Exchange sSAPT0                 3.32022794 [mEh]       2.08347449 [kcal/mol]       8.71725725 [kJ/mol]
    Induction sSAPT0               -1.26711722 [mEh]      -0.79512806 [kcal/mol]      -3.32681580 [kJ/mol]
    Dispersion sSAPT0              -3.84398056 [mEh]      -2.41213422 [kcal/mol]     -10.09236956 [kJ/mol]
  Total sSAPT0                     -8.63877103 [mEh]      -5.42091066 [kcal/mol]     -22.68109021 [kJ/mol]
  --------------------------------------------------------------------------------------------------------

*** Psi4 exiting successfully. Buy a developer a beer!
