                               Psi4 1.9.1 release

  ==> Input File <==

--------------------------------------------------------------------------
MEMORY 10 GB

molecule dimer {
0 1
C    2.303132   0.769097   0.598623
C    1.771037  -0.610986   0.306818
O    1.096965  -0.672425  -0.955992
H    1.720340  -0.407252  -1.638962
H    2.779410   0.788335   1.576531
H    1.492158   1.491832   0.589266
H    3.046547   1.060996  -0.141675
H    1.016509  -0.890517   1.035624
H    2.564219  -1.357732   0.335502
--
0 1
C   -2.173161  -0.824996   0.687756
C   -2.308305   0.427562  -0.147802
O   -1.096845   1.159513  -0.216029
H   -0.428333   0.573832  -0.599947
H   -3.123530  -1.352530   0.749169
H   -1.851493  -0.572073   1.695117
H   -1.440510  -1.498009   0.246730
H   -3.040341   1.099491   0.292988
H   -2.658168   0.171178  -1.150463

units ang
no_reorient
no_com
symmetry c1
}

set {
basis        aug-cc-pVTZ
scf_type     df
}

energy("sapt2+")
--------------------------------------------------------------------------

  //              Dimer HF             //
    Molecular point group: c1
  Charge       = 0
  Multiplicity = 1
  Basis Set: AUG-CC-PVTZ
    Blend: AUG-CC-PVTZ
  Basis Set: (AUG-CC-PVTZ AUX)
    Blend: AUG-CC-PVTZ-JKFIT
  @DF-RHF Final Energy:  -308.29462552695094
    Total Energy =                       -308.2946255269509379
 Dipole X            :          5.2316110           -4.4711185            0.7604925
 Dipole Y            :         -3.4705046            2.9636896           -0.5068150
 Dipole Z            :         -4.3465690            4.3200689           -0.0265002
 Magnitude           :                                                    0.9142825
  //            Monomer A HF           //
    Molecular point group: c1
  Multiplicity = 1
  Basis Set: AUG-CC-PVTZ
    Blend: AUG-CC-PVTZ
  Basis Set: (AUG-CC-PVTZ AUX)
    Blend: AUG-CC-PVTZ-JKFIT
  @DF-RHF Final Energy:  -154.14487920237994
    Total Energy =                       -154.1448792023799399
  //            Monomer B HF           //
    Molecular point group: c1

    Geometry (in Angstrom), charge = 0, multiplicity = 1:

       Center              X                  Y                   Z               Mass
    ------------   -----------------  -----------------  -----------------  -----------------
      Gh(C)           2.303132000000     0.769097000000     0.598623000000    12.000000000000
      Gh(C)           1.771037000000    -0.610986000000     0.306818000000    12.000000000000
      Gh(O)           1.096965000000    -0.672425000000    -0.955992000000    15.994914619570
      Gh(H)           1.720340000000    -0.407252000000    -1.638962000000     1.007825032230
      Gh(H)           2.779410000000     0.788335000000     1.576531000000     1.007825032230
      Gh(H)           1.492158000000     1.491832000000     0.589266000000     1.007825032230
      Gh(H)           3.046547000000     1.060996000000    -0.141675000000     1.007825032230
      Gh(H)           1.016509000000    -0.890517000000     1.035624000000     1.007825032230
      Gh(H)           2.564219000000    -1.357732000000     0.335502000000     1.007825032230
         C           -2.173161000000    -0.824996000000     0.687756000000    12.000000000000
         C           -2.308305000000     0.427562000000    -0.147802000000    12.000000000000
         O           -1.096845000000     1.159513000000    -0.216029000000    15.994914619570
         H           -0.428333000000     0.573832000000    -0.599947000000     1.007825032230
         H           -3.123530000000    -1.352530000000     0.749169000000     1.007825032230
         H           -1.851493000000    -0.572073000000     1.695117000000     1.007825032230
         H           -1.440510000000    -1.498009000000     0.246730000000     1.007825032230
         H           -3.040341000000     1.099491000000     0.292988000000     1.007825032230
         H           -2.658168000000     0.171178000000    -1.150463000000     1.007825032230

  Charge       = 0
  Multiplicity = 1
  Basis Set: AUG-CC-PVTZ
    Blend: AUG-CC-PVTZ
  Basis Set: (AUG-CC-PVTZ AUX)
    Blend: AUG-CC-PVTZ-JKFIT

    Orbital Energies [Eh]
    ---------------------

    Doubly Occupied:

       1A    -20.555993     2A    -11.272336     3A    -11.216811
       4A     -1.358233     5A     -1.014838     6A     -0.848162
       7A     -0.686911     8A     -0.625177     9A     -0.609675
      10A     -0.545452    11A     -0.527102    12A     -0.482960
      13A     -0.443116

  @DF-RHF Final Energy:  -154.14490231546415

   => Energetics <=

    Nuclear Repulsion Energy =             82.0794934895352810
    One-Electron Energy =                -372.0752564963477766
    Two-Electron Energy =                 135.8508606913483163
    Total Energy =                       -154.1449023154641509
 Dipole X            :         90.9611648          -91.0960072           -0.1348424
 Dipole Y            :        -10.7342452           10.0408500           -0.6933952
 Dipole Z            :         -5.3527674            5.1874607           -0.1653067
 Magnitude           :                                                    0.7254693

    SAPT Results
  --------------------------------------------------------------------------------------------------------
    Electrostatics                -14.32328064 [mEh]      -8.98799430 [kcal/mol]     -37.60576814 [kJ/mol]
      Elst10,r                    -13.84939087 [mEh]      -8.69062398 [kcal/mol]     -36.36157072 [kJ/mol]
      Elst12,r                     -0.47388977 [mEh]      -0.29737032 [kcal/mol]      -1.24419742 [kJ/mol]

    Exchange                       15.35385633 [mEh]       9.63469031 [kcal/mol]      40.31154425 [kJ/mol]
      Exch10                       12.91278734 [mEh]       8.10289639 [kcal/mol]      33.90251850 [kJ/mol]
      Exch10(S^2)                  12.83775469 [mEh]       8.05581269 [kcal/mol]      33.70552028 [kJ/mol]
      Exch11(S^2)                   0.13225125 [mEh]       0.08298891 [kcal/mol]       0.34722560 [kJ/mol]
      Exch12(S^2)                   2.30881774 [mEh]       1.44880501 [kcal/mol]       6.06180015 [kJ/mol]

    Induction                      -4.33721992 [mEh]      -2.72164659 [kcal/mol]     -11.38736933 [kJ/mol]
      Ind20,r                      -5.70351220 [mEh]      -3.57900794 [kcal/mol]     -14.97456922 [kJ/mol]
      Ind22                        -1.05312558 [mEh]      -0.66084628 [kcal/mol]      -2.76498083 [kJ/mol]
      Exch-Ind20,r                  3.37572586 [mEh]       2.11829996 [kcal/mol]       8.86296702 [kJ/mol]
      Exch-Ind22                    0.62331124 [mEh]       0.39113371 [kcal/mol]       1.63650343 [kJ/mol]
      delta HF,r (2)               -1.57961924 [mEh]      -0.99122604 [kcal/mol]      -4.14728974 [kJ/mol]

    Dispersion                     -8.24022603 [mEh]      -5.17081990 [kcal/mol]     -21.63471045 [kJ/mol]
      Disp20                       -8.40015575 [mEh]      -5.27117731 [kcal/mol]     -22.05460588 [kJ/mol]
      Disp21                        0.55797134 [mEh]       0.35013230 [kcal/mol]       1.46495354 [kJ/mol]
      Disp22 (SDQ)                 -0.07143978 [mEh]      -0.04482914 [kcal/mol]      -0.18756511 [kJ/mol]
      Disp22 (T)                   -1.30999613 [mEh]      -0.82203499 [kcal/mol]      -3.43939438 [kJ/mol]
      Est. Disp22 (T)              -1.47657890 [mEh]      -0.92656725 [kcal/mol]      -3.87675736 [kJ/mol]
      Exch-Disp20                   1.14997706 [mEh]       0.72162150 [kcal/mol]       3.01926435 [kJ/mol]

  Total HF                         -4.84400911 [mEh]      -3.03966161 [kcal/mol]     -12.71794416 [kJ/mol]
  Total SAPT0                     -12.09418780 [mEh]      -7.58921742 [kcal/mol]     -31.75328568 [kJ/mol]
  Total SAPT2                     -10.55682292 [mEh]      -6.62450639 [kcal/mol]     -27.71693475 [kJ/mol]
  Total SAPT2+                    -11.54687025 [mEh]      -7.24577048 [kcal/mol]     -30.31630368 [kJ/mol]

  Special recipe for scaled SAPT0 (see Manual):
    Electrostatics sSAPT0         -13.84939087 [mEh]      -8.69062398 [kcal/mol]     -36.36157072 [kJ/mol]
    Exchange sSAPT0                12.91278734 [mEh]       8.10289639 [kcal/mol]      33.90251850 [kJ/mol]
    Induction sSAPT0               -3.84786877 [mEh]      -2.41457411 [kcal/mol]     -10.10257807 [kJ/mol]
    Dispersion sSAPT0              -7.22989684 [mEh]      -4.53682876 [kcal/mol]     -18.98209154 [kJ/mol]
  Total sSAPT0                    -12.01436914 [mEh]      -7.53913046 [kcal/mol]     -31.54372184 [kJ/mol]
  --------------------------------------------------------------------------------------------------------

*** Psi4 exiting successfully. Buy a developer a beer!
