                               Psi4 1.9.1 release

  ==> Input File <==

--------------------------------------------------------------------------
MEMORY 10 GB

molecule dimer {
0 1
C    2.303132   0.769097   0.598623
C    1.771037  -0.610986   0.306818
O    1.096965  -0.672425  -0.955992
H    1.720340  -0.407252  -1.638962
H    2.779410   0.788335   1.576531
H    1.492158   1.491832   0.589266
H    3.046547   1.060996  -0.141675
H    1.016509  -0.890517   1.035624
H    2.564219  -1.357732   0.335502
--
0 1
C   -1.859760  -1.086701   0.582047
C   -1.994904   0.165857  -0.253511
O   -0.783444   0.897808  -0.321738
H   -0.114932   0.312127  -0.705656
H   -2.810129  -1.614235   0.643460
H   -1.538092  -0.833778   1.589408
H   -1.127109  -1.759714   0.141021
H   -2.726940   0.837786   0.187279
H   -2.344767  -0.090527  -1.256172

units ang
no_reorient
no_com
symmetry c1
}

set {
basis        aug-cc-pVTZ
scf_type     df
}

energy("sapt2+")
--------------------------------------------------------------------------

  //              Dimer HF             //
    Molecular point group: c1
  Charge       = 0
  Multiplicity = 1
  Basis Set: AUG-CC-PVTZ
    Blend: AUG-CC-PVTZ
  Basis Set: (AUG-CC-PVTZ AUX)
    Blend: AUG-CC-PVTZ-JKFIT
  @DF-RHF Final Energy:  -308.28587087953190
    Total Energy =                       -308.2858708795318989
 Dipole X            :        -10.0213808           10.9271750            0.9057943
 Dipole Y            :          9.3530114           -9.8946306           -0.5416192
 Dipole Z            :          0.8215939           -0.8737187           -0.0521247
 Magnitude           :                                                    1.0566606
  //            Monomer A HF           //
    Molecular point group: c1
  Multiplicity = 1
  Basis Set: AUG-CC-PVTZ
    Blend: AUG-CC-PVTZ
  Basis Set: (AUG-CC-PVTZ AUX)
    Blend: AUG-CC-PVTZ-JKFIT
  @DF-RHF Final Energy:  -154.14494559355060
    Total Energy =                       -154.1449455935506023
  //            Monomer B HF           //
    Molecular point group: c1

    Geometry (in Angstrom), charge = 0, multiplicity = 1:

       Center              X                  Y                   Z               Mass
    ------------   -----------------  -----------------  -----------------  -----------------
      Gh(C)           2.303132000000     0.769097000000     0.598623000000    12.000000000000
      Gh(C)           1.771037000000    -0.610986000000     0.306818000000    12.000000000000
      Gh(O)           1.096965000000    -0.672425000000    -0.955992000000    15.994914619570
      Gh(H)           1.720340000000    -0.407252000000    -1.638962000000     1.007825032230
      Gh(H)           2.779410000000     0.788335000000     1.576531000000     1.007825032230
      Gh(H)           1.492158000000     1.491832000000     0.589266000000     1.007825032230
      Gh(H)           3.046547000000     1.060996000000    -0.141675000000     1.007825032230
      Gh(H)           1.016509000000    -0.890517000000     1.035624000000     1.007825032230
      Gh(H)           2.564219000000    -1.357732000000     0.335502000000     1.007825032230
         C           -1.859760000000    -1.086701000000     0.582047000000    12.000000000000
         C           -1.994904000000     0.165857000000    -0.253511000000    12.000000000000
         O           -0.783444000000     0.897808000000    -0.321738000000    15.994914619570
         H           -0.114932000000     0.312127000000    -0.705656000000     1.007825032230
         H           -2.810129000000    -1.614235000000     0.643460000000     1.007825032230
         H           -1.538092000000    -0.833778000000     1.589408000000     1.007825032230
         H           -1.127109000000    -1.759714000000     0.141021000000     1.007825032230
         H           -2.726940000000     0.837786000000     0.187279000000     1.007825032230
         H           -2.344767000000    -0.090527000000    -1.256172000000     1.007825032230

  Charge       = 0
  Multiplicity = 1
  Basis Set: AUG-CC-PVTZ
    Blend: AUG-CC-PVTZ
  Basis Set: (AUG-CC-PVTZ AUX)
    Blend: AUG-CC-PVTZ-JKFIT

    Orbital Energies [Eh]
    ---------------------

    Doubly Occupied:

       1A    -20.555973     2A    -11.272334     3A    -11.216808
       4A     -1.358220     5A     -1.014835     6A     -0.848159
       7A     -0.686909     8A     -0.625172     9A     -0.609670
      10A     -0.545449    11A     -0.527099    12A     -0.482957
      13A     -0.443108

  @DF-RHF Final Energy:  -154.14495131470210

   => Energetics <=

    Nuclear Repulsion Energy =             82.0794934895352810
    One-Electron Energy =                -372.0755009397088315
    Two-Electron Energy =                 135.8510561354714810
    Total Energy =                       -154.1449513147020980
 Dipole X            :         75.5629435          -75.6977137           -0.1347702
 Dipole Y            :          2.1241033           -2.8174702           -0.6933669
 Dipole Z            :         -0.1589686           -0.0063268           -0.1652954
 Magnitude           :                                                    0.7254262

    SAPT Results
  --------------------------------------------------------------------------------------------------------
    Electrostatics                -35.01165151 [mEh]     -21.97014301 [kcal/mol]     -91.92307836 [kJ/mol]
      Elst10,r                    -33.39928113 [mEh]     -20.95836533 [kcal/mol]     -87.68980052 [kJ/mol]
      Elst12,r                     -1.61237038 [mEh]      -1.01177769 [kcal/mol]      -4.23327784 [kJ/mol]

    Exchange                       58.00977555 [mEh]      36.40168373 [kcal/mol]     152.30464473 [kJ/mol]
      Exch10                       51.34438404 [mEh]      32.21908741 [kcal/mol]     134.80466173 [kJ/mol]
      Exch10(S^2)                  50.25011274 [mEh]      31.53242180 [kcal/mol]     131.93165282 [kJ/mol]
      Exch11(S^2)                   0.45268104 [mEh]       0.28406164 [kcal/mol]       1.18851390 [kJ/mol]
      Exch12(S^2)                   6.21271048 [mEh]       3.89853468 [kcal/mol]      16.31146911 [kJ/mol]

    Induction                     -15.24601145 [mEh]      -9.56701662 [kcal/mol]     -40.02839756 [kJ/mol]
      Ind20,r                     -24.19570283 [mEh]     -15.18303275 [kcal/mol]     -63.52580904 [kJ/mol]
      Ind22                        -4.15822009 [mEh]      -2.60932250 [kcal/mol]     -10.91740533 [kJ/mol]
      Exch-Ind20,r                 16.47456758 [mEh]      10.33794723 [kcal/mol]      43.25397123 [kJ/mol]
      Exch-Ind22                    2.83128282 [mEh]       1.77665679 [kcal/mol]       7.43353203 [kJ/mol]
      delta HF,r (2)               -6.19793894 [mEh]      -3.88926540 [kcal/mol]     -16.27268644 [kJ/mol]

    Dispersion                    -16.18694065 [mEh]     -10.15745861 [kcal/mol]     -42.49880681 [kJ/mol]
      Disp20                      -18.10468411 [mEh]     -11.36086080 [kcal/mol]     -47.53384159 [kJ/mol]
      Disp21                        1.52774219 [mEh]       0.95867270 [kcal/mol]       4.01108657 [kJ/mol]
      Disp22 (SDQ)                 -0.23203537 [mEh]      -0.14560439 [kcal/mol]      -0.60920877 [kJ/mol]
      Disp22 (T)                   -2.65780735 [mEh]      -1.66779929 [kcal/mol]      -6.97807224 [kJ/mol]
      Est. Disp22 (T)              -2.98152051 [mEh]      -1.87093237 [kcal/mol]      -7.82798103 [kJ/mol]
      Exch-Disp20                   3.60355716 [mEh]       2.26126625 [kcal/mol]       9.46113801 [kJ/mol]

  Total HF                          4.02602872 [mEh]       2.52637116 [kcal/mol]      10.57033695 [kJ/mol]
  Total SAPT0                     -10.47509824 [mEh]      -6.57322338 [kcal/mol]     -27.50236663 [kJ/mol]
  Total SAPT2                      -6.74901436 [mEh]      -4.23507045 [kcal/mol]     -17.71953477 [kJ/mol]
  Total SAPT2+                     -8.43482805 [mEh]      -5.29293451 [kcal/mol]     -22.14563800 [kJ/mol]

  Special recipe for scaled SAPT0 (see Manual):
    Electrostatics sSAPT0         -33.39928113 [mEh]     -20.95836533 [kcal/mol]     -87.68980052 [kJ/mol]
    Exchange sSAPT0                51.34438404 [mEh]      32.21908741 [kcal/mol]     134.80466173 [kJ/mol]
    Induction sSAPT0              -12.81919158 [mEh]      -8.04416416 [kcal/mol]     -33.65678285 [kJ/mol]
    Dispersion sSAPT0             -14.26054463 [mEh]      -8.94862685 [kcal/mol]     -37.44105476 [kJ/mol]
  Total sSAPT0                     -9.13463329 [mEh]      -5.73206893 [kcal/mol]     -23.98297641 [kJ/mol]
  --------------------------------------------------------------------------------------------------------

*** Psi4 exiting successfully. Buy a developer a beer!
