                               Psi4 1.9.1 release

  ==> Input File <==

--------------------------------------------------------------------------
MEMORY 10 GB

molecule dimer {
0 1
C    2.303132   0.769097   0.598623
C    1.771037  -0.610986   0.306818
O    1.096965  -0.672425  -0.955992
H    1.720340  -0.407252  -1.638962
H    2.779410   0.788335   1.576531
H    1.492158   1.491832   0.589266
H    3.046547   1.060996  -0.141675
H    1.016509  -0.890517   1.035624
H    2.564219  -1.357732   0.335502
--
0 1
C   -2.068694  -0.912231   0.652520
C   -2.203838   0.340327  -0.183038
O   -0.992378   1.072278  -0.251265
H   -0.323866   0.486597  -0.635183
H   -3.019063  -1.439765   0.713933
H   -1.747026  -0.659308   1.659881
H   -1.336043  -1.585244   0.211494
H   -2.935874   1.012256   0.257752
H   -2.553701   0.083943  -1.185699

units ang
no_reorient
no_com
symmetry c1
}

set {
basis        aug-cc-pVTZ
scf_type     df
}

energy("sapt2+")
--------------------------------------------------------------------------

  //              Dimer HF             //
    Molecular point group: c1
  Charge       = 0
  Multiplicity = 1
  Basis Set: AUG-CC-PVTZ
    Blend: AUG-CC-PVTZ
  Basis Set: (AUG-CC-PVTZ AUX)
    Blend: AUG-CC-PVTZ-JKFIT
  @DF-RHF Final Energy:  -308.29349096217055
    Total Energy =                       -308.2934909621705515
 Dipole X            :          0.1363440            0.6616460            0.7979900
 Dipole Y            :          0.8069045           -1.3224171           -0.5155126
 Dipole Z            :         -2.6224740            2.5888227           -0.0336512
 Magnitude           :                                                    0.9506175
  //            Monomer A HF           //
    Molecular point group: c1
  Multiplicity = 1
  Basis Set: AUG-CC-PVTZ
    Blend: AUG-CC-PVTZ
  Basis Set: (AUG-CC-PVTZ AUX)
    Blend: AUG-CC-PVTZ-JKFIT
  @DF-RHF Final Energy:  -154.14489662820714
    Total Energy =                       -154.1448966282071353
  //            Monomer B HF           //
    Molecular point group: c1

    Geometry (in Angstrom), charge = 0, multiplicity = 1:

       Center              X                  Y                   Z               Mass
    ------------   -----------------  -----------------  -----------------  -----------------
      Gh(C)           2.303132000000     0.769097000000     0.598623000000    12.000000000000
      Gh(C)           1.771037000000    -0.610986000000     0.306818000000    12.000000000000
      Gh(O)           1.096965000000    -0.672425000000    -0.955992000000    15.994914619570
      Gh(H)           1.720340000000    -0.407252000000    -1.638962000000     1.007825032230
      Gh(H)           2.779410000000     0.788335000000     1.576531000000     1.007825032230
      Gh(H)           1.492158000000     1.491832000000     0.589266000000     1.007825032230
      Gh(H)           3.046547000000     1.060996000000    -0.141675000000     1.007825032230
      Gh(H)           1.016509000000    -0.890517000000     1.035624000000     1.007825032230
      Gh(H)           2.564219000000    -1.357732000000     0.335502000000     1.007825032230
         C           -2.068694000000    -0.912231000000     0.652520000000    12.000000000000
         C           -2.203838000000     0.340327000000    -0.183038000000    12.000000000000
         O           -0.992378000000     1.072278000000    -0.251265000000    15.994914619570
         H           -0.323866000000     0.486597000000    -0.635183000000     1.007825032230
         H           -3.019063000000    -1.439765000000     0.713933000000     1.007825032230
         H           -1.747026000000    -0.659308000000     1.659881000000     1.007825032230
         H           -1.336043000000    -1.585244000000     0.211494000000     1.007825032230
         H           -2.935874000000     1.012256000000     0.257752000000     1.007825032230
         H           -2.553701000000     0.083943000000    -1.185699000000     1.007825032230

  Charge       = 0
  Multiplicity = 1
  Basis Set: AUG-CC-PVTZ
    Blend: AUG-CC-PVTZ
  Basis Set: (AUG-CC-PVTZ AUX)
    Blend: AUG-CC-PVTZ-JKFIT

    Orbital Energies [Eh]
    ---------------------

    Doubly Occupied:

       1A    -20.555986     2A    -11.272335     3A    -11.216810
       4A     -1.358229     5A     -1.014837     6A     -0.848161
       7A     -0.686910     8A     -0.625176     9A     -0.609673
      10A     -0.545451    11A     -0.527101    12A     -0.482959
      13A     -0.443113

  @DF-RHF Final Energy:  -154.14491610091721

   => Energetics <=

    Nuclear Repulsion Energy =             82.0794934895352668
    One-Electron Energy =                -372.0753327308499934
    Two-Electron Energy =                 135.8509231403975264
    Total Energy =                       -154.1449161009172144
 Dipole X            :         85.8284231          -85.9632427           -0.1348196
 Dipole Y            :         -6.4481323            5.7547433           -0.6933890
 Dipole Z            :         -3.6215248            3.4562146           -0.1653102
 Magnitude           :                                                    0.7254599

    SAPT Results
  --------------------------------------------------------------------------------------------------------
    Electrostatics                -18.98127832 [mEh]     -11.91093197 [kcal/mol]     -49.83533936 [kJ/mol]
      Elst10,r                    -18.22099874 [mEh]     -11.43384933 [kcal/mol]     -47.83922560 [kJ/mol]
      Elst12,r                     -0.76027958 [mEh]      -0.47708264 [kcal/mol]      -1.99611376 [kJ/mol]

    Exchange                       23.89910839 [mEh]      14.99691693 [kcal/mol]      62.74710045 [kJ/mol]
      Exch10                       20.42084424 [mEh]      12.81427322 [kcal/mol]      53.61491917 [kJ/mol]
      Exch10(S^2)                  20.23793304 [mEh]      12.69949471 [kcal/mol]      53.13468588 [kJ/mol]
      Exch11(S^2)                   0.20991675 [mEh]       0.13172475 [kcal/mol]       0.55113636 [kJ/mol]
      Exch12(S^2)                   3.26834740 [mEh]       2.05091896 [kcal/mol]       8.58104491 [kJ/mol]

    Induction                      -6.49385932 [mEh]      -4.07495825 [kcal/mol]     -17.04962530 [kJ/mol]
      Ind20,r                      -9.06924966 [mEh]      -5.69104008 [kcal/mol]     -23.81131169 [kJ/mol]
      Ind22                        -1.66361792 [mEh]      -1.04393601 [kcal/mol]      -4.36782826 [kJ/mol]
      Exch-Ind20,r                  5.71230725 [mEh]       3.58452692 [kcal/mol]      14.99766063 [kJ/mol]
      Exch-Ind22                    1.04783715 [mEh]       0.65752774 [kcal/mol]       2.75109606 [kJ/mol]
      delta HF,r (2)               -2.52113615 [mEh]      -1.58203682 [kcal/mol]      -6.61924205 [kJ/mol]

    Dispersion                    -10.35968414 [mEh]      -6.50079994 [kcal/mol]     -27.19934696 [kJ/mol]
      Disp20                      -10.75699089 [mEh]      -6.75011369 [kcal/mol]     -28.24247568 [kJ/mol]
      Disp21                        0.75735716 [mEh]       0.47524879 [kcal/mol]       1.98844095 [kJ/mol]
      Disp22 (SDQ)                 -0.10677848 [mEh]      -0.06700451 [kcal/mol]      -0.28034687 [kJ/mol]
      Disp22 (T)                   -1.72046624 [mEh]      -1.07960887 [kcal/mol]      -4.51708350 [kJ/mol]
      Est. Disp22 (T)              -1.94663212 [mEh]      -1.22153010 [kcal/mol]      -5.11088194 [kJ/mol]
      Exch-Disp20                   1.69336019 [mEh]       1.06259956 [kcal/mol]       4.44591658 [kJ/mol]

  Total HF                         -3.67823305 [mEh]      -2.30812608 [kcal/mol]      -9.65719953 [kJ/mol]
  Total SAPT0                     -12.74186374 [mEh]      -7.99564021 [kcal/mol]     -33.45375863 [kJ/mol]
  Total SAPT2                     -10.63965994 [mEh]      -6.67648741 [kcal/mol]     -27.93442332 [kJ/mol]
  Total SAPT2+                    -11.93571338 [mEh]      -7.48977322 [kcal/mol]     -31.33721117 [kJ/mol]

  Special recipe for scaled SAPT0 (see Manual):
    Electrostatics sSAPT0         -18.22099874 [mEh]     -11.43384933 [kcal/mol]     -47.83922560 [kJ/mol]
    Exchange sSAPT0                20.42084424 [mEh]      12.81427322 [kcal/mol]      53.61491917 [kJ/mol]
    Induction sSAPT0               -5.72179034 [mEh]      -3.59047765 [kcal/mol]     -15.02255847 [kJ/mol]
    Dispersion sSAPT0              -9.01730051 [mEh]      -5.65844150 [kcal/mol]     -23.67491923 [kJ/mol]
  Total sSAPT0                    -12.53924535 [mEh]      -7.86849525 [kcal/mol]     -32.92178412 [kJ/mol]
  --------------------------------------------------------------------------------------------------------

*** Psi4 exiting successfully. Buy a developer a beer!
