                               Psi4 1.9.1 release

  ==> Input File <==

--------------------------------------------------------------------------
MEMORY 10 GB

molecule dimer {
0 1
C    2.303132   0.769097   0.598623
C    1.771037  -0.610986   0.306818
O    1.096965  -0.672425  -0.955992
H    1.720340  -0.407252  -1.638962
H    2.779410   0.788335   1.576531
H    1.492158   1.491832   0.589266
H    3.046547   1.060996  -0.141675
H    1.016509  -0.890517   1.035624
H    2.564219  -1.357732   0.335502
--
0 1
C   -1.964227  -0.999466   0.617284
C   -2.099371   0.253092  -0.218274
O   -0.887911   0.985043  -0.286501
H   -0.219399   0.399362  -0.670419
H   -2.914596  -1.527000   0.678697
H   -1.642559  -0.746543   1.624645
H   -1.231576  -1.672479   0.176258
H   -2.831407   0.925021   0.222516
H   -2.449234  -0.003292  -1.220935

units ang
no_reorient
no_com
symmetry c1
}

set {
basis        aug-cc-pVTZ
scf_type     df
}

energy("sapt2+")
--------------------------------------------------------------------------

  //              Dimer HF             //
    Molecular point group: c1
  Charge       = 0
  Multiplicity = 1
  Basis Set: AUG-CC-PVTZ
    Blend: AUG-CC-PVTZ
  Basis Set: (AUG-CC-PVTZ AUX)
    Blend: AUG-CC-PVTZ-JKFIT
  @DF-RHF Final Energy:  -308.29092842799099
    Total Energy =                       -308.2909284279909912
 Dipole X            :         -4.9488721            5.7944105            0.8455384
 Dipole Y            :          5.0815952           -5.6085238           -0.5269286
 Dipole Z            :         -0.8997674            0.8575766           -0.0421908
 Magnitude           :                                                    0.9971806
  //            Monomer A HF           //
    Molecular point group: c1
  Multiplicity = 1
  Basis Set: AUG-CC-PVTZ
    Blend: AUG-CC-PVTZ
  Basis Set: (AUG-CC-PVTZ AUX)
    Blend: AUG-CC-PVTZ-JKFIT
  @DF-RHF Final Energy:  -154.14491985546059
    Total Energy =                       -154.1449198554605857
  //            Monomer B HF           //
    Molecular point group: c1

    Geometry (in Angstrom), charge = 0, multiplicity = 1:

       Center              X                  Y                   Z               Mass
    ------------   -----------------  -----------------  -----------------  -----------------
      Gh(C)           2.303132000000     0.769097000000     0.598623000000    12.000000000000
      Gh(C)           1.771037000000    -0.610986000000     0.306818000000    12.000000000000
      Gh(O)           1.096965000000    -0.672425000000    -0.955992000000    15.994914619570
      Gh(H)           1.720340000000    -0.407252000000    -1.638962000000     1.007825032230
      Gh(H)           2.779410000000     0.788335000000     1.576531000000     1.007825032230
      Gh(H)           1.492158000000     1.491832000000     0.589266000000     1.007825032230
      Gh(H)           3.046547000000     1.060996000000    -0.141675000000     1.007825032230
      Gh(H)           1.016509000000    -0.890517000000     1.035624000000     1.007825032230
      Gh(H)           2.564219000000    -1.357732000000     0.335502000000     1.007825032230
         C           -1.964227000000    -0.999466000000     0.617284000000    12.000000000000
         C           -2.099371000000     0.253092000000    -0.218274000000    12.000000000000
         O           -0.887911000000     0.985043000000    -0.286501000000    15.994914619570
         H           -0.219399000000     0.399362000000    -0.670419000000     1.007825032230
         H           -2.914596000000    -1.527000000000     0.678697000000     1.007825032230
         H           -1.642559000000    -0.746543000000     1.624645000000     1.007825032230
         H           -1.231576000000    -1.672479000000     0.176258000000     1.007825032230
         H           -2.831407000000     0.925021000000     0.222516000000     1.007825032230
         H           -2.449234000000    -0.003292000000    -1.220935000000     1.007825032230

  Charge       = 0
  Multiplicity = 1
  Basis Set: AUG-CC-PVTZ
    Blend: AUG-CC-PVTZ
  Basis Set: (AUG-CC-PVTZ AUX)
    Blend: AUG-CC-PVTZ-JKFIT

    Orbital Energies [Eh]
    ---------------------

    Doubly Occupied:

       1A    -20.555980     2A    -11.272335     3A    -11.216809
       4A     -1.358224     5A     -1.014836     6A     -0.848160
       7A     -0.686910     8A     -0.625174     9A     -0.609671
      10A     -0.545450    11A     -0.527100    12A     -0.482958
      13A     -0.443110

  @DF-RHF Final Energy:  -154.14493323091617

   => Energetics <=

    Nuclear Repulsion Energy =             82.0794934895352668
    One-Electron Energy =                -372.0754154406329235
    Two-Electron Energy =                 135.8509887201815047
    Total Energy =                       -154.1449332309161662
 Dipole X            :         80.6956836          -80.8304782           -0.1347946
 Dipole Y            :         -2.1620154            1.4686366           -0.6933788
 Dipole Z            :         -1.8902736            1.7249685           -0.1653051
 Magnitude           :                                                    0.7254444

    SAPT Results
  --------------------------------------------------------------------------------------------------------
    Electrostatics                -25.59029956 [mEh]     -16.05815541 [kcal/mol]     -67.18732224 [kJ/mol]
      Elst10,r                    -24.45236629 [mEh]     -15.34409150 [kcal/mol]     -64.19967885 [kJ/mol]
      Elst12,r                     -1.13793327 [mEh]      -0.71406391 [kcal/mol]      -2.98764340 [kJ/mol]

    Exchange                       37.23004711 [mEh]      23.36220727 [kcal/mol]      97.74747521 [kJ/mol]
      Exch10                       32.35908094 [mEh]      20.30562985 [kcal/mol]      84.95875529 [kJ/mol]
      Exch10(S^2)                  31.91159373 [mEh]      20.02482739 [kcal/mol]      83.78387779 [kJ/mol]
      Exch11(S^2)                   0.31870394 [mEh]       0.19998974 [kcal/mol]       0.83675708 [kJ/mol]
      Exch12(S^2)                   4.55226223 [mEh]       2.85658768 [kcal/mol]      11.95196284 [kJ/mol]

    Induction                      -9.87562435 [mEh]      -6.19704784 [kcal/mol]     -25.92844817 [kJ/mol]
      Ind20,r                     -14.68158361 [mEh]      -9.21283281 [kcal/mol]     -38.54649246 [kJ/mol]
      Ind22                        -2.62944688 [mEh]      -1.65000283 [kcal/mol]      -6.90361184 [kJ/mol]
      Exch-Ind20,r                  9.69232340 [mEh]       6.08202476 [kcal/mol]      25.44719159 [kJ/mol]
      Exch-Ind22                    1.73587879 [mEh]       1.08928038 [kcal/mol]       4.55754913 [kJ/mol]
      delta HF,r (2)               -3.99279605 [mEh]      -2.50551735 [kcal/mol]     -10.48308459 [kJ/mol]

    Dispersion                    -12.92793149 [mEh]      -8.11239949 [kcal/mol]     -33.94227945 [kJ/mol]
      Disp20                      -13.89474430 [mEh]      -8.71908368 [kcal/mol]     -36.48064613 [kJ/mol]
      Disp21                        1.06000778 [mEh]       0.66516493 [kcal/mol]       2.78305005 [kJ/mol]
      Disp22 (SDQ)                 -0.15872849 [mEh]      -0.09960363 [kcal/mol]      -0.41674161 [kJ/mol]
      Disp22 (T)                   -2.13990067 [mEh]      -1.34280794 [kcal/mol]      -5.61830843 [kJ/mol]
      Est. Disp22 (T)              -2.41486113 [mEh]      -1.51534824 [kcal/mol]      -6.34021702 [kJ/mol]
      Exch-Disp20                   2.48039465 [mEh]       1.55647114 [kcal/mol]       6.51227525 [kJ/mol]

  Total HF                         -1.07534161 [mEh]      -0.67478705 [kcal/mol]      -2.82330902 [kJ/mol]
  Total SAPT0                     -12.48969126 [mEh]      -7.83739959 [kcal/mol]     -32.79167989 [kJ/mol]
  Total SAPT2                      -9.65022646 [mEh]      -6.05560853 [kcal/mol]     -25.33666608 [kJ/mol]
  Total SAPT2+                    -11.16380830 [mEh]      -7.00539547 [kcal/mol]     -29.31057466 [kJ/mol]

  Special recipe for scaled SAPT0 (see Manual):
    Electrostatics sSAPT0         -24.45236629 [mEh]     -15.34409150 [kcal/mol]     -64.19967885 [kJ/mol]
    Exchange sSAPT0                32.35908094 [mEh]      20.30562985 [kcal/mol]      84.95875529 [kJ/mol]
    Induction sSAPT0               -8.56857385 [mEh]      -5.37686127 [kcal/mol]     -22.49678755 [kJ/mol]
    Dispersion sSAPT0             -11.30853399 [mEh]      -7.09621222 [kcal/mol]     -29.69055191 [kJ/mol]
  Total sSAPT0                    -11.97039320 [mEh]      -7.51153514 [kcal/mol]     -31.42826302 [kJ/mol]
  --------------------------------------------------------------------------------------------------------

*** Psi4 exiting successfully. Buy a developer a beer!
