                               Psi4 1.9.1 release

  ==> Input File <==

--------------------------------------------------------------------------
MEMORY 10 GB

molecule dimer {
0 1
C    2.355352   0.003156   0.000061
C    0.937302  -0.501955  -0.000075
O    0.072422   0.620392  -0.000014
H   -0.838375   0.302130   0.000003
H    3.056621  -0.827988   0.000404
H    2.535016   0.612763   0.881313
H    2.535301   0.612274  -0.881468
H    0.761942  -1.121834   0.881890
H    0.762030  -1.121711  -0.882147
--
0 1
O   -3.257202  -0.332988  -0.000002
H   -3.707908   0.043592  -0.759524
H   -3.707758   0.042804   0.759998

units ang
no_reorient
no_com
symmetry c1
}

set {
basis        aug-cc-pVTZ
scf_type     df
}

energy("sapt2+")
--------------------------------------------------------------------------

  //              Dimer HF             //
    Molecular point group: c1
  Charge       = 0
  Multiplicity = 1
  Basis Set: AUG-CC-PVTZ
    Blend: AUG-CC-PVTZ
  Basis Set: (AUG-CC-PVTZ AUX)
    Blend: AUG-CC-PVTZ-JKFIT
  @DF-RHF Final Energy:  -230.21063642188216
    Total Energy =                       -230.2106364218821568
 Dipole X            :          7.2499022           -8.1739102           -0.9240080
 Dipole Y            :          3.8992039           -4.0658062           -0.1666023
 Dipole Z            :         -0.0001774            0.0004857            0.0003082
 Magnitude           :                                                    0.9389074
  //            Monomer A HF           //
    Molecular point group: c1
  Multiplicity = 1
  Basis Set: AUG-CC-PVTZ
    Blend: AUG-CC-PVTZ
  Basis Set: (AUG-CC-PVTZ AUX)
    Blend: AUG-CC-PVTZ-JKFIT
  @DF-RHF Final Energy:  -154.14555811122969
    Total Energy =                       -154.1455581112296898
  //            Monomer B HF           //
    Molecular point group: c1

    Geometry (in Angstrom), charge = 0, multiplicity = 1:

       Center              X                  Y                   Z               Mass
    ------------   -----------------  -----------------  -----------------  -----------------
      Gh(C)           2.355352000000     0.003156000000     0.000061000000    12.000000000000
      Gh(C)           0.937302000000    -0.501955000000    -0.000075000000    12.000000000000
      Gh(O)           0.072422000000     0.620392000000    -0.000014000000    15.994914619570
      Gh(H)          -0.838375000000     0.302130000000     0.000003000000     1.007825032230
      Gh(H)           3.056621000000    -0.827988000000     0.000404000000     1.007825032230
      Gh(H)           2.535016000000     0.612763000000     0.881313000000     1.007825032230
      Gh(H)           2.535301000000     0.612274000000    -0.881468000000     1.007825032230
      Gh(H)           0.761942000000    -1.121834000000     0.881890000000     1.007825032230
      Gh(H)           0.762030000000    -1.121711000000    -0.882147000000     1.007825032230
         O           -3.257202000000    -0.332988000000    -0.000002000000    15.994914619570
         H           -3.707908000000     0.043592000000    -0.759524000000     1.007825032230
         H           -3.707758000000     0.042804000000     0.759998000000     1.007825032230

  Charge       = 0
  Multiplicity = 1
  Basis Set: AUG-CC-PVTZ
    Blend: AUG-CC-PVTZ
  Basis Set: (AUG-CC-PVTZ AUX)
    Blend: AUG-CC-PVTZ-JKFIT

    Orbital Energies [Eh]
    ---------------------

    Doubly Occupied:

       1A    -20.567499     2A     -1.351955     3A     -0.716382
       4A     -0.584109     5A     -0.510085

  @DF-RHF Final Energy:   -76.06048208085387

   => Energetics <=

    Nuclear Repulsion Energy =              9.1668143074716237
    One-Electron Energy =                -122.9945297290316546
    Two-Electron Energy =                  37.7672333407061558
    Total Energy =                        -76.0604820808538733
 Dipole X            :         62.6566854          -63.2553355           -0.5986501
 Dipole Y            :          5.3698779           -4.8707842            0.4990936
 Dipole Z            :         -0.0005482            0.0008655            0.0003173
 Magnitude           :                                                    0.7794078

    SAPT Results
  --------------------------------------------------------------------------------------------------------
    Electrostatics                 -5.16371294 [mEh]      -3.24027879 [kcal/mol]     -13.55732647 [kJ/mol]
      Elst10,r                     -5.37897243 [mEh]      -3.37535616 [kcal/mol]     -14.12249016 [kJ/mol]
      Elst12,r                      0.21525948 [mEh]       0.13507736 [kcal/mol]       0.56516369 [kJ/mol]

    Exchange                        1.91341470 [mEh]       1.20068585 [kcal/mol]       5.02366961 [kJ/mol]
      Exch10                        1.53542225 [mEh]       0.96349201 [kcal/mol]       4.03125056 [kJ/mol]
      Exch10(S^2)                   1.53350277 [mEh]       0.96228751 [kcal/mol]       4.02621096 [kJ/mol]
      Exch11(S^2)                   0.00869561 [mEh]       0.00545658 [kcal/mol]       0.02283033 [kJ/mol]
      Exch12(S^2)                   0.36929684 [mEh]       0.23173727 [kcal/mol]       0.96958872 [kJ/mol]

    Induction                      -0.83431988 [mEh]      -0.52354363 [kcal/mol]      -2.19050654 [kJ/mol]
      Ind20,r                      -0.83649891 [mEh]      -0.52491099 [kcal/mol]      -2.19622758 [kJ/mol]
      Ind22                        -0.12405710 [mEh]      -0.07784700 [kcal/mol]      -0.32571186 [kJ/mol]
      Exch-Ind20,r                  0.28601058 [mEh]       0.17947435 [kcal/mol]       0.75092067 [kJ/mol]
      Exch-Ind22                    0.04241684 [mEh]       0.02661697 [kcal/mol]       0.11136540 [kJ/mol]
      delta HF,r (2)               -0.20219130 [mEh]      -0.12687695 [kcal/mol]      -0.53085318 [kJ/mol]

    Dispersion                     -1.57510023 [mEh]      -0.98839031 [kcal/mol]      -4.13542508 [kJ/mol]
      Disp20                       -1.41950402 [mEh]      -0.89075222 [kcal/mol]      -3.72690730 [kJ/mol]
      Disp21                        0.00449166 [mEh]       0.00281856 [kcal/mol]       0.01179284 [kJ/mol]
      Disp22 (SDQ)                 -0.02710695 [mEh]      -0.01700987 [kcal/mol]      -0.07116929 [kJ/mol]
      Disp22 (T)                   -0.23611709 [mEh]      -0.14816571 [kcal/mol]      -0.61992533 [kJ/mol]
      Est. Disp22 (T)              -0.26857887 [mEh]      -0.16853579 [kcal/mol]      -0.70515373 [kJ/mol]
      Exch-Disp20                   0.13559796 [mEh]       0.08508901 [kcal/mol]       0.35601241 [kJ/mol]

  Total HF                         -4.59622980 [mEh]      -2.88417774 [kcal/mol]     -12.06739967 [kJ/mol]
  Total SAPT0                      -5.88013586 [mEh]      -3.68984096 [kcal/mol]     -15.43829457 [kJ/mol]
  Total SAPT2                      -5.36852418 [mEh]      -3.36879978 [kcal/mol]     -14.09505829 [kJ/mol]
  Total SAPT2+                     -5.65971835 [mEh]      -3.55152688 [kcal/mol]     -14.85958847 [kJ/mol]

  Special recipe for scaled SAPT0 (see Manual):
    Electrostatics sSAPT0          -5.37897243 [mEh]      -3.37535616 [kcal/mol]     -14.12249016 [kJ/mol]
    Exchange sSAPT0                 1.53542225 [mEh]       0.96349201 [kcal/mol]       4.03125056 [kJ/mol]
    Induction sSAPT0               -0.75160428 [mEh]      -0.47163881 [kcal/mol]      -1.97333677 [kJ/mol]
    Dispersion sSAPT0              -1.28339624 [mEh]      -0.80534330 [kcal/mol]      -3.36955636 [kJ/mol]
  Total sSAPT0                     -5.87855069 [mEh]      -3.68884625 [kcal/mol]     -15.43413272 [kJ/mol]
  --------------------------------------------------------------------------------------------------------

*** Psi4 exiting successfully. Buy a developer a beer!
