                               Psi4 1.9.1 release

  ==> Input File <==

--------------------------------------------------------------------------
MEMORY 10 GB

molecule dimer {
0 1
C    2.355352   0.003156   0.000061
C    0.937302  -0.501955  -0.000075
O    0.072422   0.620392  -0.000014
H   -0.838375   0.302130   0.000003
H    3.056621  -0.827988   0.000404
H    2.535016   0.612763   0.881313
H    2.535301   0.612274  -0.881468
H    0.761942  -1.121834   0.881890
H    0.762030  -1.121711  -0.882147
--
0 1
O   -2.979734  -0.253539  -0.000003
H   -3.430440   0.123041  -0.759525
H   -3.430290   0.122253   0.759997

units ang
no_reorient
no_com
symmetry c1
}

set {
basis        aug-cc-pVTZ
scf_type     df
}

energy("sapt2+")
--------------------------------------------------------------------------

  //              Dimer HF             //
    Molecular point group: c1
  Charge       = 0
  Multiplicity = 1
  Basis Set: AUG-CC-PVTZ
    Blend: AUG-CC-PVTZ
  Basis Set: (AUG-CC-PVTZ AUX)
    Blend: AUG-CC-PVTZ-JKFIT
  @DF-RHF Final Energy:  -230.21149132373702
    Total Energy =                       -230.2114913237370217
 Dipole X            :          1.9509558           -2.9305249           -0.9795691
 Dipole Y            :          2.3965829           -2.5644377           -0.1678548
 Dipole Z            :         -0.0001587            0.0004668            0.0003080
 Magnitude           :                                                    0.9938466
  //            Monomer A HF           //
    Molecular point group: c1
  Multiplicity = 1
  Basis Set: AUG-CC-PVTZ
    Blend: AUG-CC-PVTZ
  Basis Set: (AUG-CC-PVTZ AUX)
    Blend: AUG-CC-PVTZ-JKFIT
  @DF-RHF Final Energy:  -154.14557018693253
    Total Energy =                       -154.1455701869325310
  //            Monomer B HF           //
    Molecular point group: c1

    Geometry (in Angstrom), charge = 0, multiplicity = 1:

       Center              X                  Y                   Z               Mass
    ------------   -----------------  -----------------  -----------------  -----------------
      Gh(C)           2.355352000000     0.003156000000     0.000061000000    12.000000000000
      Gh(C)           0.937302000000    -0.501955000000    -0.000075000000    12.000000000000
      Gh(O)           0.072422000000     0.620392000000    -0.000014000000    15.994914619570
      Gh(H)          -0.838375000000     0.302130000000     0.000003000000     1.007825032230
      Gh(H)           3.056621000000    -0.827988000000     0.000404000000     1.007825032230
      Gh(H)           2.535016000000     0.612763000000     0.881313000000     1.007825032230
      Gh(H)           2.535301000000     0.612274000000    -0.881468000000     1.007825032230
      Gh(H)           0.761942000000    -1.121834000000     0.881890000000     1.007825032230
      Gh(H)           0.762030000000    -1.121711000000    -0.882147000000     1.007825032230
         O           -2.979734000000    -0.253539000000    -0.000003000000    15.994914619570
         H           -3.430440000000     0.123041000000    -0.759525000000     1.007825032230
         H           -3.430290000000     0.122253000000     0.759997000000     1.007825032230

  Charge       = 0
  Multiplicity = 1
  Basis Set: AUG-CC-PVTZ
    Blend: AUG-CC-PVTZ
  Basis Set: (AUG-CC-PVTZ AUX)
    Blend: AUG-CC-PVTZ-JKFIT

    Orbital Energies [Eh]
    ---------------------

    Doubly Occupied:

       1A    -20.567476     2A     -1.351939     3A     -0.716368
       4A     -0.584099     5A     -0.510074

  @DF-RHF Final Energy:   -76.06048727403352

   => Energetics <=

    Nuclear Repulsion Energy =              9.1668143074716255
    One-Electron Energy =                -122.9946873400360943
    Two-Electron Energy =                  37.7673857585309420
    Total Energy =                        -76.0604872740335338
 Dipole X            :         57.4135093          -58.0119502           -0.5984409
 Dipole Y            :          3.8683883           -3.3694157            0.4989726
 Dipole Z            :         -0.0005294            0.0008466            0.0003172
 Magnitude           :                                                    0.7791696

    SAPT Results
  --------------------------------------------------------------------------------------------------------
    Electrostatics                 -8.02068853 [mEh]      -5.03305804 [kcal/mol]     -21.05831483 [kJ/mol]
      Elst10,r                     -8.17382828 [mEh]      -5.12915468 [kcal/mol]     -21.46038319 [kJ/mol]
      Elst12,r                      0.15313975 [mEh]       0.09609665 [kcal/mol]       0.40206836 [kJ/mol]

    Exchange                        5.30234098 [mEh]       3.32726920 [kcal/mol]      13.92129433 [kJ/mol]
      Exch10                        4.40633420 [mEh]       2.76501646 [kcal/mol]      11.56882885 [kJ/mol]
      Exch10(S^2)                   4.39236903 [mEh]       2.75625318 [kcal/mol]      11.53216331 [kJ/mol]
      Exch11(S^2)                   0.03528072 [mEh]       0.02213899 [kcal/mol]       0.09262951 [kJ/mol]
      Exch12(S^2)                   0.86072606 [mEh]       0.54011376 [kcal/mol]       2.25983596 [kJ/mol]

    Induction                      -1.84387999 [mEh]      -1.15705216 [kcal/mol]      -4.84110625 [kJ/mol]
      Ind20,r                      -2.03628862 [mEh]      -1.27779040 [kcal/mol]      -5.34627504 [kJ/mol]
      Ind22                        -0.33389394 [mEh]      -0.20952161 [kcal/mol]      -0.87663843 [kJ/mol]
      Exch-Ind20,r                  0.95371661 [mEh]       0.59846621 [kcal/mol]       2.50398261 [kJ/mol]
      Exch-Ind22                    0.15638264 [mEh]       0.09813159 [kcal/mol]       0.41058258 [kJ/mol]
      delta HF,r (2)               -0.58379668 [mEh]      -0.36633795 [kcal/mol]      -1.53275796 [kJ/mol]

    Dispersion                     -2.70675192 [mEh]      -1.69851247 [kcal/mol]      -7.10657618 [kJ/mol]
      Disp20                       -2.56630000 [mEh]      -1.61037756 [kcal/mol]      -6.73781973 [kJ/mol]
      Disp21                        0.02387917 [mEh]       0.01498441 [kcal/mol]       0.06269476 [kJ/mol]
      Disp22 (SDQ)                 -0.04421895 [mEh]      -0.02774781 [kcal/mol]      -0.11609683 [kJ/mol]
      Disp22 (T)                   -0.40497158 [mEh]      -0.25412350 [kcal/mol]      -1.06325274 [kJ/mol]
      Est. Disp22 (T)              -0.46915131 [mEh]      -0.29439689 [kcal/mol]      -1.23175660 [kJ/mol]
      Exch-Disp20                   0.34903917 [mEh]       0.21902539 [kcal/mol]       0.91640222 [kJ/mol]

  Total HF                         -5.43386277 [mEh]      -3.40980037 [kcal/mol]     -14.26660474 [kJ/mol]
  Total SAPT0                      -7.65112360 [mEh]      -4.80115255 [kcal/mol]     -20.08802225 [kJ/mol]
  Total SAPT2                      -6.77948837 [mEh]      -4.25419318 [kcal/mol]     -17.79954426 [kJ/mol]
  Total SAPT2+                     -7.26897946 [mEh]      -4.56135347 [kcal/mol]     -19.08470293 [kJ/mol]

  Special recipe for scaled SAPT0 (see Manual):
    Electrostatics sSAPT0          -8.17382828 [mEh]      -5.12915468 [kcal/mol]     -21.46038319 [kJ/mol]
    Exchange sSAPT0                 4.40633420 [mEh]       2.76501646 [kcal/mol]      11.56882885 [kJ/mol]
    Induction sSAPT0               -1.65724295 [mEh]      -1.03993565 [kcal/mol]      -4.35109078 [kJ/mol]
    Dispersion sSAPT0              -2.21392101 [mEh]      -1.38925641 [kcal/mol]      -5.81264882 [kJ/mol]
  Total sSAPT0                     -7.63865805 [mEh]      -4.79333029 [kcal/mol]     -20.05529394 [kJ/mol]
  --------------------------------------------------------------------------------------------------------

*** Psi4 exiting successfully. Buy a developer a beer!
