                               Psi4 1.9.1 release

  ==> Input File <==

--------------------------------------------------------------------------
MEMORY 10 GB

molecule dimer {
0 1
C    2.355352   0.003156   0.000061
C    0.937302  -0.501955  -0.000075
O    0.072422   0.620392  -0.000014
H   -0.838375   0.302130   0.000003
H    3.056621  -0.827988   0.000404
H    2.535016   0.612763   0.881313
H    2.535301   0.612274  -0.881468
H    0.761942  -1.121834   0.881890
H    0.762030  -1.121711  -0.882147
--
0 1
O   -2.702265  -0.174091  -0.000004
H   -3.152971   0.202489  -0.759526
H   -3.152821   0.201701   0.759996

units ang
no_reorient
no_com
symmetry c1
}

set {
basis        aug-cc-pVTZ
scf_type     df
}

energy("sapt2+")
--------------------------------------------------------------------------

  //              Dimer HF             //
    Molecular point group: c1
  Charge       = 0
  Multiplicity = 1
  Basis Set: AUG-CC-PVTZ
    Blend: AUG-CC-PVTZ
  Basis Set: (AUG-CC-PVTZ AUX)
    Blend: AUG-CC-PVTZ-JKFIT
  @DF-RHF Final Energy:  -230.21112105304755
    Total Energy =                       -230.2111210530475489
 Dipole X            :         -3.3777935            2.3128793           -1.0649143
 Dipole Y            :          0.8950345           -1.0630881           -0.1680537
 Dipole Z            :         -0.0001394            0.0004479            0.0003085
 Magnitude           :                                                    1.0780930
  //            Monomer A HF           //
    Molecular point group: c1
  Multiplicity = 1
  Basis Set: AUG-CC-PVTZ
    Blend: AUG-CC-PVTZ
  Basis Set: (AUG-CC-PVTZ AUX)
    Blend: AUG-CC-PVTZ-JKFIT
  @DF-RHF Final Energy:  -154.14558259788410
    Total Energy =                       -154.1455825978841006
  //            Monomer B HF           //
    Molecular point group: c1

    Geometry (in Angstrom), charge = 0, multiplicity = 1:

       Center              X                  Y                   Z               Mass
    ------------   -----------------  -----------------  -----------------  -----------------
      Gh(C)           2.355352000000     0.003156000000     0.000061000000    12.000000000000
      Gh(C)           0.937302000000    -0.501955000000    -0.000075000000    12.000000000000
      Gh(O)           0.072422000000     0.620392000000    -0.000014000000    15.994914619570
      Gh(H)          -0.838375000000     0.302130000000     0.000003000000     1.007825032230
      Gh(H)           3.056621000000    -0.827988000000     0.000404000000     1.007825032230
      Gh(H)           2.535016000000     0.612763000000     0.881313000000     1.007825032230
      Gh(H)           2.535301000000     0.612274000000    -0.881468000000     1.007825032230
      Gh(H)           0.761942000000    -1.121834000000     0.881890000000     1.007825032230
      Gh(H)           0.762030000000    -1.121711000000    -0.882147000000     1.007825032230
         O           -2.702265000000    -0.174091000000    -0.000004000000    15.994914619570
         H           -3.152971000000     0.202489000000    -0.759526000000     1.007825032230
         H           -3.152821000000     0.201701000000     0.759996000000     1.007825032230

  Charge       = 0
  Multiplicity = 1
  Basis Set: AUG-CC-PVTZ
    Blend: AUG-CC-PVTZ
  Basis Set: (AUG-CC-PVTZ AUX)
    Blend: AUG-CC-PVTZ-JKFIT

    Orbital Energies [Eh]
    ---------------------

    Doubly Occupied:

       1A    -20.567461     2A     -1.351925     3A     -0.716355
       4A     -0.584091     5A     -0.510068

  @DF-RHF Final Energy:   -76.06050380187273

   => Energetics <=

    Nuclear Repulsion Energy =              9.1668143074716255
    One-Electron Energy =                -122.9948353069157747
    Two-Electron Energy =                  37.7675171975714150
    Total Energy =                        -76.0605038018727271
 Dipole X            :         52.1702488          -52.7685460           -0.5982973
 Dipole Y            :          2.3670525           -1.8680661            0.4989864
 Dipole Z            :         -0.0005105            0.0008277            0.0003172
 Magnitude           :                                                    0.7790681

    SAPT Results
  --------------------------------------------------------------------------------------------------------
    Electrostatics                -13.62564775 [mEh]      -8.55022305 [kcal/mol]     -35.77413324 [kJ/mol]
      Elst10,r                    -13.57746894 [mEh]      -8.51999039 [kcal/mol]     -35.64763979 [kJ/mol]
      Elst12,r                     -0.04817881 [mEh]      -0.03023266 [kcal/mol]      -0.12649346 [kJ/mol]

    Exchange                       14.54700800 [mEh]       9.12838533 [kcal/mol]      38.19316423 [kJ/mol]
      Exch10                       12.52482032 [mEh]       7.85944341 [kcal/mol]      32.88391123 [kJ/mol]
      Exch10(S^2)                  12.42572652 [mEh]       7.79726111 [kcal/mol]      32.62374048 [kJ/mol]
      Exch11(S^2)                   0.11739236 [mEh]       0.07366482 [kcal/mol]       0.30821360 [kJ/mol]
      Exch12(S^2)                   1.90479531 [mEh]       1.19527710 [kcal/mol]       5.00103941 [kJ/mol]

    Induction                      -4.36501440 [mEh]      -2.73908789 [kcal/mol]     -11.46034373 [kJ/mol]
      Ind20,r                      -5.44931376 [mEh]      -3.41949601 [kcal/mol]     -14.30717131 [kJ/mol]
      Ind22                        -0.91033950 [mEh]      -0.57124666 [kcal/mol]      -2.39009602 [kJ/mol]
      Exch-Ind20,r                  3.15660849 [mEh]       1.98080173 [kcal/mol]       8.28767445 [kJ/mol]
      Exch-Ind22                    0.52732977 [mEh]       0.33090443 [kcal/mol]       1.38450413 [kJ/mol]
      delta HF,r (2)               -1.68929940 [mEh]      -1.06005138 [kcal/mol]      -4.43525498 [kJ/mol]

    Dispersion                     -4.74944217 [mEh]      -2.98031995 [kcal/mol]     -12.46965869 [kJ/mol]
      Disp20                       -4.82717160 [mEh]      -3.02909591 [kcal/mol]     -12.67373728 [kJ/mol]
      Disp21                        0.11312593 [mEh]       0.07098759 [kcal/mol]       0.29701208 [kJ/mol]
      Disp22 (SDQ)                 -0.07068022 [mEh]      -0.04435251 [kcal/mol]      -0.18557090 [kJ/mol]
      Disp22 (T)                   -0.72026132 [mEh]      -0.45197080 [kcal/mol]      -1.89104584 [kJ/mol]
      Est. Disp22 (T)              -0.84324627 [mEh]      -0.52914502 [kcal/mol]      -2.21394277 [kJ/mol]
      Exch-Disp20                   0.87853000 [mEh]       0.55128590 [kcal/mol]       2.30658019 [kJ/mol]

  Total HF                         -5.03465329 [mEh]      -3.15929264 [kcal/mol]     -13.21848039 [kJ/mol]
  Total SAPT0                      -8.98329489 [mEh]      -5.63710265 [kcal/mol]     -23.58563749 [kJ/mol]
  Total SAPT2                      -7.39229576 [mEh]      -4.63873562 [kcal/mol]     -19.40846983 [kJ/mol]
  Total SAPT2+                     -8.19309632 [mEh]      -5.14124556 [kcal/mol]     -21.51097143 [kJ/mol]

  Special recipe for scaled SAPT0 (see Manual):
    Electrostatics sSAPT0         -13.57746894 [mEh]      -8.51999039 [kcal/mol]     -35.64763979 [kJ/mol]
    Exchange sSAPT0                12.52482032 [mEh]       7.85944341 [kcal/mol]      32.88391123 [kJ/mol]
    Induction sSAPT0               -3.90587998 [mEh]      -2.45097669 [kcal/mol]     -10.25488649 [kJ/mol]
    Dispersion sSAPT0              -3.92745499 [mEh]      -2.46451522 [kcal/mol]     -10.31153167 [kJ/mol]
  Total sSAPT0                     -8.88598359 [mEh]      -5.57603889 [kcal/mol]     -23.33014671 [kJ/mol]
  --------------------------------------------------------------------------------------------------------

*** Psi4 exiting successfully. Buy a developer a beer!
