                               Psi4 1.9.1 release

  ==> Input File <==

--------------------------------------------------------------------------
MEMORY 10 GB

molecule dimer {
0 1
C    2.355352   0.003156   0.000061
C    0.937302  -0.501955  -0.000075
O    0.072422   0.620392  -0.000014
H   -0.838375   0.302130   0.000003
H    3.056621  -0.827988   0.000404
H    2.535016   0.612763   0.881313
H    2.535301   0.612274  -0.881468
H    0.761942  -1.121834   0.881890
H    0.762030  -1.121711  -0.882147
--
0 1
O   -2.563531  -0.134367  -0.000005
H   -3.014237   0.242213  -0.759526
H   -3.014087   0.241425   0.759996

units ang
no_reorient
no_com
symmetry c1
}

set {
basis        aug-cc-pVTZ
scf_type     df
}

energy("sapt2+")
--------------------------------------------------------------------------

  //              Dimer HF             //
    Molecular point group: c1
  Charge       = 0
  Multiplicity = 1
  Basis Set: AUG-CC-PVTZ
    Blend: AUG-CC-PVTZ
  Basis Set: (AUG-CC-PVTZ AUX)
    Blend: AUG-CC-PVTZ-JKFIT
  @DF-RHF Final Energy:  -230.20958524668012
    Total Energy =                       -230.2095852466801205
 Dipole X            :         -6.0589795            4.9345719           -1.1244076
 Dipole Y            :          0.1450143           -0.3124133           -0.1673990
 Dipole Z            :         -0.0001225            0.0004327            0.0003102
 Magnitude           :                                                    1.1368003
  //            Monomer A HF           //
    Molecular point group: c1
  Multiplicity = 1
  Basis Set: AUG-CC-PVTZ
    Blend: AUG-CC-PVTZ
  Basis Set: (AUG-CC-PVTZ AUX)
    Blend: AUG-CC-PVTZ-JKFIT
  @DF-RHF Final Energy:  -154.14559519170965
    Total Energy =                       -154.1455951917096456
  //            Monomer B HF           //
    Molecular point group: c1

    Geometry (in Angstrom), charge = 0, multiplicity = 1:

       Center              X                  Y                   Z               Mass
    ------------   -----------------  -----------------  -----------------  -----------------
      Gh(C)           2.355352000000     0.003156000000     0.000061000000    12.000000000000
      Gh(C)           0.937302000000    -0.501955000000    -0.000075000000    12.000000000000
      Gh(O)           0.072422000000     0.620392000000    -0.000014000000    15.994914619570
      Gh(H)          -0.838375000000     0.302130000000     0.000003000000     1.007825032230
      Gh(H)           3.056621000000    -0.827988000000     0.000404000000     1.007825032230
      Gh(H)           2.535016000000     0.612763000000     0.881313000000     1.007825032230
      Gh(H)           2.535301000000     0.612274000000    -0.881468000000     1.007825032230
      Gh(H)           0.761942000000    -1.121834000000     0.881890000000     1.007825032230
      Gh(H)           0.762030000000    -1.121711000000    -0.882147000000     1.007825032230
         O           -2.563531000000    -0.134367000000    -0.000005000000    15.994914619570
         H           -3.014237000000     0.242213000000    -0.759526000000     1.007825032230
         H           -3.014087000000     0.241425000000     0.759996000000     1.007825032230

  Charge       = 0
  Multiplicity = 1
  Basis Set: AUG-CC-PVTZ
    Blend: AUG-CC-PVTZ
  Basis Set: (AUG-CC-PVTZ AUX)
    Blend: AUG-CC-PVTZ-JKFIT

    Orbital Energies [Eh]
    ---------------------

    Doubly Occupied:

       1A    -20.567444     2A     -1.351914     3A     -0.716344
       4A     -0.584083     5A     -0.510069

  @DF-RHF Final Energy:   -76.06052598118389

   => Energetics <=

    Nuclear Repulsion Energy =              9.1668143051792317
    One-Electron Energy =                -122.9949667670932314
    Two-Electron Energy =                  37.7676264807301152
    Total Energy =                        -76.0605259811838863
 Dipole X            :         49.5485753          -50.1468534           -0.5982781
 Dipole Y            :          1.6164304           -1.1173913            0.4990391
 Dipole Z            :         -0.0004943            0.0008126            0.0003183
 Magnitude           :                                                    0.7790872

    SAPT Results
  --------------------------------------------------------------------------------------------------------
    Electrostatics                -18.38528003 [mEh]     -11.53693740 [kcal/mol]     -48.27054607 [kJ/mol]
      Elst10,r                    -18.15332885 [mEh]     -11.39138584 [kcal/mol]     -47.66155833 [kJ/mol]
      Elst12,r                     -0.23195118 [mEh]      -0.14555156 [kcal/mol]      -0.60898773 [kJ/mol]

    Exchange                       23.96347323 [mEh]      15.03730647 [kcal/mol]      62.91609029 [kJ/mol]
      Exch10                       21.00430133 [mEh]      13.18039808 [kcal/mol]      55.14678555 [kJ/mol]
      Exch10(S^2)                  20.74376346 [mEh]      13.01690809 [kcal/mol]      54.46274346 [kJ/mol]
      Exch11(S^2)                   0.19946642 [mEh]       0.12516707 [kcal/mol]       0.52369900 [kJ/mol]
      Exch12(S^2)                   2.75970548 [mEh]       1.73174133 [kcal/mol]       7.24560573 [kJ/mol]

    Induction                      -6.88409771 [mEh]      -4.31983653 [kcal/mol]     -18.07419604 [kJ/mol]
      Ind20,r                      -9.18161426 [mEh]      -5.76154993 [kcal/mol]     -24.10632491 [kJ/mol]
      Ind22                        -1.50614111 [mEh]      -0.94511781 [kcal/mol]      -3.95437293 [kJ/mol]
      Exch-Ind20,r                  5.71260940 [mEh]       3.58471652 [kcal/mol]      14.99845390 [kJ/mol]
      Exch-Ind22                    0.93708967 [mEh]       0.58803264 [kcal/mol]       2.46032858 [kJ/mol]
      delta HF,r (2)               -2.84604141 [mEh]      -1.78591795 [kcal/mol]      -7.47228068 [kJ/mol]

    Dispersion                     -6.33419960 [mEh]      -3.97477026 [kcal/mol]     -16.63043875 [kJ/mol]
      Disp20                       -6.71125505 [mEh]      -4.21137612 [kcal/mol]     -17.62039770 [kJ/mol]
      Disp21                        0.22685683 [mEh]       0.14235481 [kcal/mol]       0.59561253 [kJ/mol]
      Disp22 (SDQ)                 -0.09052776 [mEh]      -0.05680703 [kcal/mol]      -0.23768061 [kJ/mol]
      Disp22 (T)                   -0.97301786 [mEh]      -0.61057793 [kcal/mol]      -2.55465804 [kJ/mol]
      Est. Disp22 (T)              -1.13470533 [mEh]      -0.71203834 [kcal/mol]      -2.97916842 [kJ/mol]
      Exch-Disp20                   1.37543171 [mEh]       0.86309643 [kcal/mol]       3.61119546 [kJ/mol]

  Total HF                         -3.46407379 [mEh]      -2.17373912 [kcal/mol]      -9.09492447 [kJ/mol]
  Total SAPT0                      -8.79989713 [mEh]      -5.52201881 [kcal/mol]     -23.10412672 [kJ/mol]
  Total SAPT2                      -6.64172785 [mEh]      -4.16774715 [kcal/mol]     -17.43785407 [kJ/mol]
  Total SAPT2+                     -7.64010411 [mEh]      -4.79423771 [kcal/mol]     -20.05909057 [kJ/mol]

  Special recipe for scaled SAPT0 (see Manual):
    Electrostatics sSAPT0         -18.15332885 [mEh]     -11.39138584 [kcal/mol]     -47.66155833 [kJ/mol]
    Exchange sSAPT0                21.00430133 [mEh]      13.18039808 [kcal/mol]      55.14678555 [kJ/mol]
    Induction sSAPT0               -6.09708349 [mEh]      -3.82597765 [kcal/mol]     -16.00789049 [kJ/mol]
    Dispersion sSAPT0              -5.28334418 [mEh]      -3.31534853 [kcal/mol]     -13.87141824 [kJ/mol]
  Total sSAPT0                     -8.52945519 [mEh]      -5.35231394 [kcal/mol]     -22.39408151 [kJ/mol]
  --------------------------------------------------------------------------------------------------------

*** Psi4 exiting successfully. Buy a developer a beer!
