                               Psi4 1.9.1 release

  ==> Input File <==

--------------------------------------------------------------------------
MEMORY 10 GB

molecule dimer {
0 1
C    2.355352   0.003156   0.000061
C    0.937302  -0.501955  -0.000075
O    0.072422   0.620392  -0.000014
H   -0.838375   0.302130   0.000003
H    3.056621  -0.827988   0.000404
H    2.535016   0.612763   0.881313
H    2.535301   0.612274  -0.881468
H    0.761942  -1.121834   0.881890
H    0.762030  -1.121711  -0.882147
--
0 1
O   -2.424796  -0.094643  -0.000005
H   -2.875502   0.281937  -0.759527
H   -2.875352   0.281149   0.759995

units ang
no_reorient
no_com
symmetry c1
}

set {
basis        aug-cc-pVTZ
scf_type     df
}

energy("sapt2+")
--------------------------------------------------------------------------

  //              Dimer HF             //
    Molecular point group: c1
  Charge       = 0
  Multiplicity = 1
  Basis Set: AUG-CC-PVTZ
    Blend: AUG-CC-PVTZ
  Basis Set: (AUG-CC-PVTZ AUX)
    Blend: AUG-CC-PVTZ-JKFIT
  @DF-RHF Final Energy:  -230.20606536582011
    Total Energy =                       -230.2060653658201090
 Dipole X            :         -8.7554771            7.5562835           -1.1991937
 Dipole Y            :         -0.6041768            0.4382615           -0.1659153
 Dipole Z            :         -0.0001187            0.0004290            0.0003103
 Magnitude           :                                                    1.2106170
  //            Monomer A HF           //
    Molecular point group: c1
  Multiplicity = 1
  Basis Set: AUG-CC-PVTZ
    Blend: AUG-CC-PVTZ
  Basis Set: (AUG-CC-PVTZ AUX)
    Blend: AUG-CC-PVTZ-JKFIT
  @DF-RHF Final Energy:  -154.14561143633074
    Total Energy =                       -154.1456114363307393
  //            Monomer B HF           //
    Molecular point group: c1

    Geometry (in Angstrom), charge = 0, multiplicity = 1:

       Center              X                  Y                   Z               Mass
    ------------   -----------------  -----------------  -----------------  -----------------
      Gh(C)           2.355352000000     0.003156000000     0.000061000000    12.000000000000
      Gh(C)           0.937302000000    -0.501955000000    -0.000075000000    12.000000000000
      Gh(O)           0.072422000000     0.620392000000    -0.000014000000    15.994914619570
      Gh(H)          -0.838375000000     0.302130000000     0.000003000000     1.007825032230
      Gh(H)           3.056621000000    -0.827988000000     0.000404000000     1.007825032230
      Gh(H)           2.535016000000     0.612763000000     0.881313000000     1.007825032230
      Gh(H)           2.535301000000     0.612274000000    -0.881468000000     1.007825032230
      Gh(H)           0.761942000000    -1.121834000000     0.881890000000     1.007825032230
      Gh(H)           0.762030000000    -1.121711000000    -0.882147000000     1.007825032230
         O           -2.424796000000    -0.094643000000    -0.000005000000    15.994914619570
         H           -2.875502000000     0.281937000000    -0.759527000000     1.007825032230
         H           -2.875352000000     0.281149000000     0.759995000000     1.007825032230

  Charge       = 0
  Multiplicity = 1
  Basis Set: AUG-CC-PVTZ
    Blend: AUG-CC-PVTZ
  Basis Set: (AUG-CC-PVTZ AUX)
    Blend: AUG-CC-PVTZ-JKFIT

    Orbital Energies [Eh]
    ---------------------

    Doubly Occupied:

       1A    -20.567411     2A     -1.351903     3A     -0.716333
       4A     -0.584076     5A     -0.510069

  @DF-RHF Final Energy:   -76.06055073243779

   => Energetics <=

    Nuclear Repulsion Energy =              9.1668143074716255
    One-Electron Energy =                -122.9951442134525763
    Two-Electron Energy =                  37.7677791735431683
    Total Energy =                        -76.0605507324377754
 Dipole X            :         46.9268569          -47.5251418           -0.5982850
 Dipole Y            :          0.8658265           -0.3667165            0.4991101
 Dipole Z            :         -0.0004915            0.0008088            0.0003173
 Magnitude           :                                                    0.7791379

    SAPT Results
  --------------------------------------------------------------------------------------------------------
    Electrostatics                -25.31326468 [mEh]     -15.88431340 [kcal/mol]     -66.45996725 [kJ/mol]
      Elst10,r                    -24.82679591 [mEh]     -15.57904964 [kcal/mol]     -65.18274369 [kJ/mol]
      Elst12,r                     -0.48646876 [mEh]      -0.30526376 [kcal/mol]      -1.27722356 [kJ/mol]

    Exchange                       39.30120722 [mEh]      24.66187986 [kcal/mol]     103.18530533 [kJ/mol]
      Exch10                       35.08029490 [mEh]      22.01321739 [kcal/mol]      92.10330158 [kJ/mol]
      Exch10(S^2)                  34.40268739 [mEh]      21.58801226 [kcal/mol]      90.32424330 [kJ/mol]
      Exch11(S^2)                   0.31895627 [mEh]       0.20014808 [kcal/mol]       0.83741956 [kJ/mol]
      Exch12(S^2)                   3.90195605 [mEh]       2.44851439 [kcal/mol]      10.24458419 [kJ/mol]

    Induction                     -11.01848650 [mEh]      -6.91420467 [kcal/mol]     -28.92903233 [kJ/mol]
      Ind20,r                     -15.76383036 [mEh]      -9.89195290 [kcal/mol]     -41.38793091 [kJ/mol]
      Ind22                        -2.49315042 [mEh]      -1.56447551 [kcal/mol]      -6.54576553 [kJ/mol]
      Exch-Ind20,r                 10.31485361 [mEh]       6.47266836 [kcal/mol]      27.08164442 [kJ/mol]
      Exch-Ind22                    1.63135996 [mEh]       1.02369383 [kcal/mol]       4.28313498 [kJ/mol]
      delta HF,r (2)               -4.70771929 [mEh]      -2.95413845 [kcal/mol]     -12.36011528 [kJ/mol]

    Dispersion                     -8.49058593 [mEh]      -5.32792311 [kcal/mol]     -22.29203029 [kJ/mol]
      Disp20                       -9.40316527 [mEh]      -5.90057529 [kcal/mol]     -24.68800701 [kJ/mol]
      Disp21                        0.43748520 [mEh]       0.27452611 [kcal/mol]       1.14861723 [kJ/mol]
      Disp22 (SDQ)                 -0.12008709 [mEh]      -0.07535579 [kcal/mol]      -0.31528861 [kJ/mol]
      Disp22 (T)                   -1.32235971 [mEh]      -0.82979324 [kcal/mol]      -3.47185493 [kJ/mol]
      Est. Disp22 (T)              -1.52994618 [mEh]      -0.96005572 [kcal/mol]      -4.01687315 [kJ/mol]
      Exch-Disp20                   2.12512741 [mEh]       1.33353758 [kcal/mol]       5.57952124 [kJ/mol]

  Total HF                          0.09680295 [mEh]       0.06074477 [kcal/mol]       0.25415611 [kJ/mol]
  Total SAPT0                      -7.18123491 [mEh]      -4.50629294 [kcal/mol]     -18.85432966 [kJ/mol]
  Total SAPT2                      -4.30858182 [mEh]      -2.70367591 [kcal/mol]     -11.31218002 [kJ/mol]
  Total SAPT2+                     -5.52112989 [mEh]      -3.46456131 [kcal/mol]     -14.49572454 [kJ/mol]

  Special recipe for scaled SAPT0 (see Manual):
    Electrostatics sSAPT0         -24.82679591 [mEh]     -15.57904964 [kcal/mol]     -65.18274369 [kJ/mol]
    Exchange sSAPT0                35.08029490 [mEh]      22.01321739 [kcal/mol]      92.10330158 [kJ/mol]
    Induction sSAPT0               -9.53511737 [mEh]      -5.98337648 [kcal/mol]     -25.03444720 [kJ/mol]
    Dispersion sSAPT0              -7.14997653 [mEh]      -4.48667801 [kcal/mol]     -18.77226079 [kJ/mol]
  Total sSAPT0                     -6.43159491 [mEh]      -4.03588674 [kcal/mol]     -16.88615010 [kJ/mol]
  --------------------------------------------------------------------------------------------------------

*** Psi4 exiting successfully. Buy a developer a beer!
