                               Psi4 1.9.1 release

  ==> Input File <==

--------------------------------------------------------------------------
MEMORY 10 GB

molecule dimer {
0 1
C    2.355352   0.003156   0.000061
C    0.937302  -0.501955  -0.000075
O    0.072422   0.620392  -0.000014
H   -0.838375   0.302130   0.000003
H    3.056621  -0.827988   0.000404
H    2.535016   0.612763   0.881313
H    2.535301   0.612274  -0.881468
H    0.761942  -1.121834   0.881890
H    0.762030  -1.121711  -0.882147
--
0 1
O   -2.147328  -0.015194  -0.000006
H   -2.598034   0.361386  -0.759528
H   -2.597884   0.360598   0.759994

units ang
no_reorient
no_com
symmetry c1
}

set {
basis        aug-cc-pVTZ
scf_type     df
}

energy("sapt2+")
--------------------------------------------------------------------------

  //              Dimer HF             //
    Molecular point group: c1
  Charge       = 0
  Multiplicity = 1
  Basis Set: AUG-CC-PVTZ
    Blend: AUG-CC-PVTZ
  Basis Set: (AUG-CC-PVTZ AUX)
    Blend: AUG-CC-PVTZ-JKFIT
  @DF-RHF Final Energy:  -230.18572509620157
    Total Energy =                       -230.1857250962015655
 Dipole X            :        -14.2088494           12.7996687           -1.4091807
 Dipole Y            :         -2.0984198            1.9396300           -0.1587898
 Dipole Z            :         -0.0000958            0.0004101            0.0003143
 Magnitude           :                                                    1.4180989
  //            Monomer A HF           //
    Molecular point group: c1
  Multiplicity = 1
  Basis Set: AUG-CC-PVTZ
    Blend: AUG-CC-PVTZ
  Basis Set: (AUG-CC-PVTZ AUX)
    Blend: AUG-CC-PVTZ-JKFIT
  @DF-RHF Final Energy:  -154.14564963911675
    Total Energy =                       -154.1456496391167548
  //            Monomer B HF           //
    Molecular point group: c1

    Geometry (in Angstrom), charge = 0, multiplicity = 1:

       Center              X                  Y                   Z               Mass
    ------------   -----------------  -----------------  -----------------  -----------------
      Gh(C)           2.355352000000     0.003156000000     0.000061000000    12.000000000000
      Gh(C)           0.937302000000    -0.501955000000    -0.000075000000    12.000000000000
      Gh(O)           0.072422000000     0.620392000000    -0.000014000000    15.994914619570
      Gh(H)          -0.838375000000     0.302130000000     0.000003000000     1.007825032230
      Gh(H)           3.056621000000    -0.827988000000     0.000404000000     1.007825032230
      Gh(H)           2.535016000000     0.612763000000     0.881313000000     1.007825032230
      Gh(H)           2.535301000000     0.612274000000    -0.881468000000     1.007825032230
      Gh(H)           0.761942000000    -1.121834000000     0.881890000000     1.007825032230
      Gh(H)           0.762030000000    -1.121711000000    -0.882147000000     1.007825032230
         O           -2.147328000000    -0.015194000000    -0.000006000000    15.994914619570
         H           -2.598034000000     0.361386000000    -0.759528000000     1.007825032230
         H           -2.597884000000     0.360598000000     0.759994000000     1.007825032230

  Charge       = 0
  Multiplicity = 1
  Basis Set: AUG-CC-PVTZ
    Blend: AUG-CC-PVTZ
  Basis Set: (AUG-CC-PVTZ AUX)
    Blend: AUG-CC-PVTZ-JKFIT

    Orbital Energies [Eh]
    ---------------------

    Doubly Occupied:

       1A    -20.567358     2A     -1.351881     3A     -0.716313
       4A     -0.584067     5A     -0.510055

  @DF-RHF Final Energy:   -76.06059414760077

   => Energetics <=

    Nuclear Repulsion Energy =              9.1668143074716237
    One-Electron Energy =                -122.9954678077860564
    Two-Electron Energy =                  37.7680593527136779
    Total Energy =                        -76.0605941476007530
 Dipole X            :         41.6834813          -42.2817566           -0.5982753
 Dipole Y            :         -0.6353883            1.1346520            0.4992637
 Dipole Z            :         -0.0004726            0.0007899            0.0003174
 Magnitude           :                                                    0.7792289

    SAPT Results
  --------------------------------------------------------------------------------------------------------
    Electrostatics                -49.90864615 [mEh]     -31.31814829 [kcal/mol]    -131.03513243 [kJ/mol]
      Elst10,r                    -48.72497672 [mEh]     -30.57538450 [kcal/mol]    -127.92740875 [kJ/mol]
      Elst12,r                     -1.18366943 [mEh]      -0.74276378 [kcal/mol]      -3.10772367 [kJ/mol]

    Exchange                      104.02472036 [mEh]      65.27649753 [kcal/mol]     273.11686568 [kJ/mol]
      Exch10                       96.36840581 [mEh]      60.47208762 [kcal/mol]     253.01521460 [kJ/mol]
      Exch10(S^2)                  91.97685419 [mEh]      57.71634737 [kcal/mol]     241.48519740 [kJ/mol]
      Exch11(S^2)                   0.60201210 [mEh]       0.37776830 [kcal/mol]       1.58058255 [kJ/mol]
      Exch12(S^2)                   7.05430245 [mEh]       4.42664162 [kcal/mol]      18.52106853 [kJ/mol]

    Induction                     -29.33449123 [mEh]     -18.40767116 [kcal/mol]     -77.01769612 [kJ/mol]
      Ind20,r                     -49.03605909 [mEh]     -30.77059163 [kcal/mol]    -128.74415540 [kJ/mol]
      Ind22                        -6.81254639 [mEh]      -4.27493740 [kcal/mol]     -17.88633807 [kJ/mol]
      Exch-Ind20,r                 33.13047022 [mEh]      20.78968394 [kcal/mol]      86.98403759 [kJ/mol]
      Exch-Ind22                    4.60279373 [mEh]       2.88829667 [kcal/mol]      12.08463327 [kJ/mol]
      delta HF,r (2)              -11.21914971 [mEh]      -7.04012273 [kcal/mol]     -29.45587351 [kJ/mol]

    Dispersion                    -15.58558843 [mEh]      -9.78010440 [kcal/mol]     -40.91995679 [kJ/mol]
      Disp20                      -18.78839535 [mEh]     -11.78989608 [kcal/mol]     -49.32892520 [kJ/mol]
      Disp21                        1.49651168 [mEh]       0.93907525 [kcal/mol]       3.92909087 [kJ/mol]
      Disp22 (SDQ)                 -0.25622529 [mEh]      -0.16078380 [kcal/mol]      -0.67271941 [kJ/mol]
      Disp22 (T)                   -2.48872841 [mEh]      -1.56170066 [kcal/mol]      -6.53415555 [kJ/mol]
      Est. Disp22 (T)              -2.81235216 [mEh]      -1.76477763 [kcal/mol]      -7.38382958 [kJ/mol]
      Exch-Disp20                   4.77487270 [mEh]       2.99627786 [kcal/mol]      12.53642655 [kJ/mol]

  Total HF                         20.51869052 [mEh]      12.87567269 [kcal/mol]      53.87181453 [kJ/mol]
  Total SAPT0                       6.50516786 [mEh]       4.08205446 [kcal/mol]      17.07931587 [kJ/mol]
  Total SAPT2                      10.76806032 [mEh]       6.75705986 [kcal/mol]      28.27153847 [kJ/mol]
  Total SAPT2+                      9.19599454 [mEh]       5.77057370 [kcal/mol]      24.14408034 [kJ/mol]

  Special recipe for scaled SAPT0 (see Manual):
    Electrostatics sSAPT0         -48.72497672 [mEh]     -30.57538450 [kcal/mol]    -127.92740875 [kJ/mol]
    Exchange sSAPT0                96.36840581 [mEh]      60.47208762 [kcal/mol]     253.01521460 [kJ/mol]
    Induction sSAPT0              -22.14898016 [mEh]     -13.89869488 [kcal/mol]     -58.15213940 [kJ/mol]
    Dispersion sSAPT0             -13.29639993 [mEh]      -8.34361692 [kcal/mol]     -34.90969321 [kJ/mol]
  Total sSAPT0                     12.19804900 [mEh]       7.65439131 [kcal/mol]      32.02597324 [kJ/mol]
  --------------------------------------------------------------------------------------------------------

*** Psi4 exiting successfully. Buy a developer a beer!
