                               Psi4 1.9.1 release

  ==> Input File <==

--------------------------------------------------------------------------
MEMORY 10 GB

molecule dimer {
0 1
C    2.355352   0.003156   0.000061
C    0.937302  -0.501955  -0.000075
O    0.072422   0.620392  -0.000014
H   -0.838375   0.302130   0.000003
H    3.056621  -0.827988   0.000404
H    2.535016   0.612763   0.881313
H    2.535301   0.612274  -0.881468
H    0.761942  -1.121834   0.881890
H    0.762030  -1.121711  -0.882147
--
0 1
O   -2.840999  -0.213815  -0.000003
H   -3.291705   0.162765  -0.759526
H   -3.291555   0.161977   0.759996

units ang
no_reorient
no_com
symmetry c1
}

set {
basis        aug-cc-pVTZ
scf_type     df
}

energy("sapt2+")
--------------------------------------------------------------------------

  //              Dimer HF             //
    Molecular point group: c1
  Charge       = 0
  Multiplicity = 1
  Basis Set: AUG-CC-PVTZ
    Blend: AUG-CC-PVTZ
  Basis Set: (AUG-CC-PVTZ AUX)
    Blend: AUG-CC-PVTZ-JKFIT
  @DF-RHF Final Energy:  -230.21158535504702
    Total Energy =                       -230.2115853550470206
 Dipole X            :         -0.7087093           -0.3088134           -1.0175227
 Dipole Y            :          1.6456183           -1.8137629           -0.1681447
 Dipole Z            :         -0.0001559            0.0004630            0.0003071
 Magnitude           :                                                    1.0313220
  //            Monomer A HF           //
    Molecular point group: c1
  Multiplicity = 1
  Basis Set: AUG-CC-PVTZ
    Blend: AUG-CC-PVTZ
  Basis Set: (AUG-CC-PVTZ AUX)
    Blend: AUG-CC-PVTZ-JKFIT
  @DF-RHF Final Energy:  -154.14557510765613
    Total Energy =                       -154.1455751076561285
  //            Monomer B HF           //
    Molecular point group: c1

    Geometry (in Angstrom), charge = 0, multiplicity = 1:

       Center              X                  Y                   Z               Mass
    ------------   -----------------  -----------------  -----------------  -----------------
      Gh(C)           2.355352000000     0.003156000000     0.000061000000    12.000000000000
      Gh(C)           0.937302000000    -0.501955000000    -0.000075000000    12.000000000000
      Gh(O)           0.072422000000     0.620392000000    -0.000014000000    15.994914619570
      Gh(H)          -0.838375000000     0.302130000000     0.000003000000     1.007825032230
      Gh(H)           3.056621000000    -0.827988000000     0.000404000000     1.007825032230
      Gh(H)           2.535016000000     0.612763000000     0.881313000000     1.007825032230
      Gh(H)           2.535301000000     0.612274000000    -0.881468000000     1.007825032230
      Gh(H)           0.761942000000    -1.121834000000     0.881890000000     1.007825032230
      Gh(H)           0.762030000000    -1.121711000000    -0.882147000000     1.007825032230
         O           -2.840999000000    -0.213815000000    -0.000003000000    15.994914619570
         H           -3.291705000000     0.162765000000    -0.759526000000     1.007825032230
         H           -3.291555000000     0.161977000000     0.759996000000     1.007825032230

  Charge       = 0
  Multiplicity = 1
  Basis Set: AUG-CC-PVTZ
    Blend: AUG-CC-PVTZ
  Basis Set: (AUG-CC-PVTZ AUX)
    Blend: AUG-CC-PVTZ-JKFIT

    Orbital Energies [Eh]
    ---------------------

    Doubly Occupied:

       1A    -20.567469     2A     -1.351933     3A     -0.716363
       4A     -0.584096     5A     -0.510069

  @DF-RHF Final Energy:   -76.06049098310908

   => Energetics <=

    Nuclear Repulsion Energy =              9.1668143097724215
    One-Electron Energy =                -122.9947468790478382
    Two-Electron Energy =                  37.7674415861663562
    Total Energy =                        -76.0604909831090623
 Dipole X            :         54.7918848          -55.3902387           -0.5983539
 Dipole Y            :          3.1177031           -2.6187409            0.4989622
 Dipole Z            :         -0.0005267            0.0008428            0.0003161
 Magnitude           :                                                    0.7790961

    SAPT Results
  --------------------------------------------------------------------------------------------------------
    Electrostatics                -10.33153661 [mEh]      -6.48313710 [kcal/mol]     -27.12544564 [kJ/mol]
      Elst10,r                    -10.40736933 [mEh]      -6.53072285 [kcal/mol]     -27.32454440 [kJ/mol]
      Elst12,r                      0.07583271 [mEh]       0.04758575 [kcal/mol]       0.19909876 [kJ/mol]

    Exchange                        8.79682143 [mEh]       5.52008879 [kcal/mol]      23.09605150 [kJ/mol]
      Exch10                        7.44068814 [mEh]       4.66910230 [kcal/mol]      19.53552402 [kJ/mol]
      Exch10(S^2)                   7.40334438 [mEh]       4.64566874 [kcal/mol]      19.43747800 [kJ/mol]
      Exch11(S^2)                   0.06580535 [mEh]       0.04129348 [kcal/mol]       0.17277192 [kJ/mol]
      Exch12(S^2)                   1.29032795 [mEh]       0.80969301 [kcal/mol]       3.38775555 [kJ/mol]

    Induction                      -2.81293295 [mEh]      -1.76514208 [kcal/mol]      -7.38535445 [kJ/mol]
      Ind20,r                      -3.29664202 [mEh]      -2.06867410 [kcal/mol]      -8.65533243 [kJ/mol]
      Ind22                        -0.55079599 [mEh]      -0.34562970 [kcal/mol]      -1.44611466 [kJ/mol]
      Exch-Ind20,r                  1.73838760 [mEh]       1.09085469 [kcal/mol]       4.56413602 [kJ/mol]
      Exch-Ind22                    0.29044613 [mEh]       0.18225770 [kcal/mol]       0.76256621 [kJ/mol]
      delta HF,r (2)               -0.99432868 [mEh]      -0.62395067 [kcal/mol]      -2.61060959 [kJ/mol]

    Dispersion                     -3.57602722 [mEh]      -2.24399096 [kcal/mol]      -9.38885819 [kJ/mol]
      Disp20                       -3.50286461 [mEh]      -2.19808073 [kcal/mol]      -9.19676976 [kJ/mol]
      Disp21                        0.05360178 [mEh]       0.03363562 [kcal/mol]       0.14073145 [kJ/mol]
      Disp22 (SDQ)                 -0.05590397 [mEh]      -0.03508027 [kcal/mol]      -0.14677585 [kJ/mol]
      Disp22 (T)                   -0.53776501 [mEh]      -0.33745264 [kcal/mol]      -1.41190183 [kJ/mol]
      Est. Disp22 (T)              -0.62659428 [mEh]      -0.39319385 [kcal/mol]      -1.64512305 [kJ/mol]
      Exch-Disp20                   0.55573385 [mEh]       0.34872826 [kcal/mol]       1.45907903 [kJ/mol]

  Total HF                         -5.51926428 [mEh]      -3.46339063 [kcal/mol]     -14.49082638 [kJ/mol]
  Total SAPT0                      -8.46639504 [mEh]      -5.31274309 [kcal/mol]     -22.22851711 [kJ/mol]
  Total SAPT2                      -7.29477889 [mEh]      -4.57754286 [kcal/mol]     -19.15243933 [kJ/mol]
  Total SAPT2+                     -7.92367536 [mEh]      -4.97218135 [kcal/mol]     -20.80360678 [kJ/mol]

  Special recipe for scaled SAPT0 (see Manual):
    Electrostatics sSAPT0         -10.40736933 [mEh]      -6.53072285 [kcal/mol]     -27.32454440 [kJ/mol]
    Exchange sSAPT0                 7.44068814 [mEh]       4.66910230 [kcal/mol]      19.53552402 [kJ/mol]
    Induction sSAPT0               -2.52614399 [mEh]      -1.58517929 [kcal/mol]      -6.63239014 [kJ/mol]
    Dispersion sSAPT0              -2.93867861 [mEh]      -1.84404867 [kcal/mol]      -7.71549962 [kJ/mol]
  Total sSAPT0                     -8.43150379 [mEh]      -5.29084850 [kcal/mol]     -22.13691014 [kJ/mol]
  --------------------------------------------------------------------------------------------------------

*** Psi4 exiting successfully. Buy a developer a beer!
