                               Psi4 1.9.1 release

  ==> Input File <==

--------------------------------------------------------------------------
MEMORY 10 GB

molecule dimer {
0 1
C    1.194805   1.105056   0.217010
C    1.098581  -0.235452  -0.466153
O    0.230083  -1.136243   0.231245
H    0.554363  -1.221565   1.132406
H    0.209866   1.553945   0.306714
H    1.627020   1.001440   1.211082
H    1.834187   1.772416  -0.356643
H    0.656104  -0.131699  -1.451625
H    2.081430  -0.691441  -0.581209
--
0 1
O   -2.589351   0.667531  -0.104072
H   -3.359102   0.148469  -0.341573
H   -1.882923   0.018769   0.032273

units ang
no_reorient
no_com
symmetry c1
}

set {
basis        aug-cc-pVTZ
scf_type     df
}

energy("sapt2+")
--------------------------------------------------------------------------

  //              Dimer HF             //
    Molecular point group: c1
  Charge       = 0
  Multiplicity = 1
  Basis Set: AUG-CC-PVTZ
    Blend: AUG-CC-PVTZ
  Basis Set: (AUG-CC-PVTZ AUX)
    Blend: AUG-CC-PVTZ-JKFIT
  @DF-RHF Final Energy:  -230.21041247655486
    Total Energy =                       -230.2104124765548647
 Dipole X            :          7.0517253           -6.4116196            0.6401057
 Dipole Y            :         -7.7736146            7.4044421           -0.3691726
 Dipole Z            :          1.1610740           -0.9940885            0.1669854
 Magnitude           :                                                    0.7575670
  //            Monomer A HF           //
    Molecular point group: c1
  Multiplicity = 1
  Basis Set: AUG-CC-PVTZ
    Blend: AUG-CC-PVTZ
  Basis Set: (AUG-CC-PVTZ AUX)
    Blend: AUG-CC-PVTZ-JKFIT
  @DF-RHF Final Energy:  -154.14486307799137
    Total Energy =                       -154.1448630779913742
  //            Monomer B HF           //
    Molecular point group: c1

    Geometry (in Angstrom), charge = 0, multiplicity = 1:

       Center              X                  Y                   Z               Mass
    ------------   -----------------  -----------------  -----------------  -----------------
      Gh(C)           1.194805000000     1.105056000000     0.217010000000    12.000000000000
      Gh(C)           1.098581000000    -0.235452000000    -0.466153000000    12.000000000000
      Gh(O)           0.230083000000    -1.136243000000     0.231245000000    15.994914619570
      Gh(H)           0.554363000000    -1.221565000000     1.132406000000     1.007825032230
      Gh(H)           0.209866000000     1.553945000000     0.306714000000     1.007825032230
      Gh(H)           1.627020000000     1.001440000000     1.211082000000     1.007825032230
      Gh(H)           1.834187000000     1.772416000000    -0.356643000000     1.007825032230
      Gh(H)           0.656104000000    -0.131699000000    -1.451625000000     1.007825032230
      Gh(H)           2.081430000000    -0.691441000000    -0.581209000000     1.007825032230
         O           -2.589351000000     0.667531000000    -0.104072000000    15.994914619570
         H           -3.359102000000     0.148469000000    -0.341573000000     1.007825032230
         H           -1.882923000000     0.018769000000     0.032273000000     1.007825032230

  Charge       = 0
  Multiplicity = 1
  Basis Set: AUG-CC-PVTZ
    Blend: AUG-CC-PVTZ
  Basis Set: (AUG-CC-PVTZ AUX)
    Blend: AUG-CC-PVTZ-JKFIT

    Orbital Energies [Eh]
    ---------------------

    Doubly Occupied:

       1A    -20.568084     2A     -1.350053     3A     -0.715205
       4A     -0.582855     5A     -0.509700

  @DF-RHF Final Energy:   -76.06013964663359

   => Energetics <=

    Nuclear Repulsion Energy =              9.1337349414559856
    One-Electron Energy =                -122.9359522006973719
    Two-Electron Energy =                  37.7420776126078010
    Total Energy =                        -76.0601396466335871
 Dipole X            :         49.0076545          -49.0513055           -0.0436509
 Dipole Y            :        -11.1829987           10.4076402           -0.7753585
 Dipole Z            :          2.0903885           -2.1578329           -0.0674444
 Magnitude           :                                                    0.7795095

    SAPT Results
  --------------------------------------------------------------------------------------------------------
    Electrostatics                 -6.77598291 [mEh]      -4.25199347 [kcal/mol]     -17.79034069 [kJ/mol]
      Elst10,r                     -6.88350397 [mEh]      -4.31946396 [kcal/mol]     -18.07263719 [kJ/mol]
      Elst12,r                      0.10752106 [mEh]       0.06747048 [kcal/mol]       0.28229650 [kJ/mol]

    Exchange                        3.24237825 [mEh]       2.03462307 [kcal/mol]       8.51286291 [kJ/mol]
      Exch10                        2.62627476 [mEh]       1.64801229 [kcal/mol]       6.89528344 [kJ/mol]
      Exch10(S^2)                   2.62238475 [mEh]       1.64557128 [kcal/mol]       6.88507022 [kJ/mol]
      Exch11(S^2)                   0.02717132 [mEh]       0.01705026 [kcal/mol]       0.07133830 [kJ/mol]
      Exch12(S^2)                   0.58893216 [mEh]       0.36956051 [kcal/mol]       1.54624117 [kJ/mol]

    Induction                      -1.28046681 [mEh]      -0.80350506 [kcal/mol]      -3.36186515 [kJ/mol]
      Ind20,r                      -1.36827055 [mEh]      -0.85860273 [kcal/mol]      -3.59239384 [kJ/mol]
      Ind22                        -0.21196189 [mEh]      -0.13300810 [kcal/mol]      -0.55650587 [kJ/mol]
      Exch-Ind20,r                  0.54235731 [mEh]       0.34033435 [kcal/mol]       1.42395893 [kJ/mol]
      Exch-Ind22                    0.08401780 [mEh]       0.05272197 [kcal/mol]       0.22058870 [kJ/mol]
      delta HF,r (2)               -0.32660948 [mEh]      -0.20495054 [kcal/mol]      -0.85751307 [kJ/mol]

    Dispersion                     -2.76174875 [mEh]      -1.73302351 [kcal/mol]      -7.25097035 [kJ/mol]
      Disp20                       -2.62477883 [mEh]      -1.64707358 [kcal/mol]      -6.89135587 [kJ/mol]
      Disp21                        0.11336419 [mEh]       0.07113710 [kcal/mol]       0.29763764 [kJ/mol]
      Disp22 (SDQ)                 -0.02292520 [mEh]      -0.01438578 [kcal/mol]      -0.06019012 [kJ/mol]
      Disp22 (T)                   -0.41405562 [mEh]      -0.25982382 [kcal/mol]      -1.08710287 [kJ/mol]
      Est. Disp22 (T)              -0.46663915 [mEh]      -0.29282049 [kcal/mol]      -1.22516092 [kJ/mol]
      Exch-Disp20                   0.23923024 [mEh]       0.15011924 [kcal/mol]       0.62809891 [kJ/mol]

  Total HF                         -5.40975193 [mEh]      -3.39467059 [kcal/mol]     -14.20330174 [kJ/mol]
  Total SAPT0                      -7.79530052 [mEh]      -4.89162493 [kcal/mol]     -20.46655869 [kJ/mol]
  Total SAPT2                      -7.19962007 [mEh]      -4.51782980 [kcal/mol]     -18.90259988 [kJ/mol]
  Total SAPT2+                     -7.57582023 [mEh]      -4.75389897 [kcal/mol]     -19.89031328 [kJ/mol]

  Special recipe for scaled SAPT0 (see Manual):
    Electrostatics sSAPT0          -6.88350397 [mEh]      -4.31946396 [kcal/mol]     -18.07263719 [kJ/mol]
    Exchange sSAPT0                 2.62627476 [mEh]       1.64801229 [kcal/mol]       6.89528344 [kJ/mol]
    Induction sSAPT0               -1.15010556 [mEh]      -0.72170214 [kcal/mol]      -3.01960174 [kJ/mol]
    Dispersion sSAPT0              -2.38448240 [mEh]      -1.49628529 [kcal/mol]      -6.26045767 [kJ/mol]
  Total sSAPT0                     -7.79181717 [mEh]      -4.88943909 [kcal/mol]     -20.45741315 [kJ/mol]
  --------------------------------------------------------------------------------------------------------

*** Psi4 exiting successfully. Buy a developer a beer!
