                               Psi4 1.9.1 release

  ==> Input File <==

--------------------------------------------------------------------------
MEMORY 10 GB

molecule dimer {
0 1
C    1.194805   1.105056   0.217010
C    1.098581  -0.235452  -0.466153
O    0.230083  -1.136243   0.231245
H    0.554363  -1.221565   1.132406
H    0.209866   1.553945   0.306714
H    1.627020   1.001440   1.211082
H    1.834187   1.772416  -0.356643
H    0.656104  -0.131699  -1.451625
H    2.081430  -0.691441  -0.581209
--
0 1
O   -1.884492   0.216587  -0.020243
H   -2.654243  -0.302475  -0.257744
H   -1.178064  -0.432175   0.116102

units ang
no_reorient
no_com
symmetry c1
}

set {
basis        aug-cc-pVTZ
scf_type     df
}

energy("sapt2+")
--------------------------------------------------------------------------

  //              Dimer HF             //
    Molecular point group: c1
  Charge       = 0
  Multiplicity = 1
  Basis Set: AUG-CC-PVTZ
    Blend: AUG-CC-PVTZ
  Basis Set: (AUG-CC-PVTZ AUX)
    Blend: AUG-CC-PVTZ-JKFIT
  @DF-RHF Final Energy:  -230.20405692154429
    Total Energy =                       -230.2040569215442929
 Dipole X            :         -6.0773602            6.9082850            0.8309248
 Dipole Y            :          0.6937592           -1.1171645           -0.4234053
 Dipole Z            :         -0.4096429            0.5900500            0.1804071
 Magnitude           :                                                    0.9498710
  //            Monomer A HF           //
    Molecular point group: c1
  Multiplicity = 1
  Basis Set: AUG-CC-PVTZ
    Blend: AUG-CC-PVTZ
  Basis Set: (AUG-CC-PVTZ AUX)
    Blend: AUG-CC-PVTZ-JKFIT
  @DF-RHF Final Energy:  -154.14492766933256
    Total Energy =                       -154.1449276693325601
  //            Monomer B HF           //
    Molecular point group: c1

    Geometry (in Angstrom), charge = 0, multiplicity = 1:

       Center              X                  Y                   Z               Mass
    ------------   -----------------  -----------------  -----------------  -----------------
      Gh(C)           1.194805000000     1.105056000000     0.217010000000    12.000000000000
      Gh(C)           1.098581000000    -0.235452000000    -0.466153000000    12.000000000000
      Gh(O)           0.230083000000    -1.136243000000     0.231245000000    15.994914619570
      Gh(H)           0.554363000000    -1.221565000000     1.132406000000     1.007825032230
      Gh(H)           0.209866000000     1.553945000000     0.306714000000     1.007825032230
      Gh(H)           1.627020000000     1.001440000000     1.211082000000     1.007825032230
      Gh(H)           1.834187000000     1.772416000000    -0.356643000000     1.007825032230
      Gh(H)           0.656104000000    -0.131699000000    -1.451625000000     1.007825032230
      Gh(H)           2.081430000000    -0.691441000000    -0.581209000000     1.007825032230
         O           -1.884492000000     0.216587000000    -0.020243000000    15.994914619570
         H           -2.654243000000    -0.302475000000    -0.257744000000     1.007825032230
         H           -1.178064000000    -0.432175000000     0.116102000000     1.007825032230

  Charge       = 0
  Multiplicity = 1
  Basis Set: AUG-CC-PVTZ
    Blend: AUG-CC-PVTZ
  Basis Set: (AUG-CC-PVTZ AUX)
    Blend: AUG-CC-PVTZ-JKFIT

    Orbital Energies [Eh]
    ---------------------

    Doubly Occupied:

       1A    -20.568001     2A     -1.349996     3A     -0.715159
       4A     -0.582821     5A     -0.509662

  @DF-RHF Final Energy:   -76.06020835114725

   => Energetics <=

    Nuclear Repulsion Energy =              9.1337349414559856
    One-Electron Energy =                -122.9366037629978763
    Two-Electron Energy =                  37.7426604703946396
    Total Energy =                        -76.0602083511472529
 Dipole X            :         35.6878441          -35.7314008           -0.0435567
 Dipole Y            :         -2.6610739            1.8860336           -0.7750403
 Dipole Z            :          0.5063719           -0.5736944           -0.0673224
 Magnitude           :                                                    0.7791771

    SAPT Results
  --------------------------------------------------------------------------------------------------------
    Electrostatics                -32.47911067 [mEh]     -20.38094964 [kcal/mol]     -85.27389330 [kJ/mol]
      Elst10,r                    -31.82902290 [mEh]     -19.97301341 [kcal/mol]     -83.56708810 [kJ/mol]
      Elst12,r                     -0.65008777 [mEh]      -0.40793623 [kcal/mol]      -1.70680520 [kJ/mol]

    Exchange                       51.95245898 [mEh]      32.60066020 [kcal/mol]     136.40116227 [kJ/mol]
      Exch10                       46.49684957 [mEh]      29.17721360 [kcal/mol]     122.07746172 [kJ/mol]
      Exch10(S^2)                  45.50677658 [mEh]      28.55593342 [kcal/mol]     119.47802544 [kJ/mol]
      Exch11(S^2)                   0.47335859 [mEh]       0.29703700 [kcal/mol]       1.24280281 [kJ/mol]
      Exch12(S^2)                   4.98225083 [mEh]       3.12640959 [kcal/mol]      13.08089774 [kJ/mol]

    Induction                     -14.71752990 [mEh]      -9.23538944 [kcal/mol]     -38.64086942 [kJ/mol]
      Ind20,r                     -21.56659243 [mEh]     -13.53324107 [kcal/mol]     -56.62308064 [kJ/mol]
      Ind22                        -3.14901152 [mEh]      -1.97603456 [kcal/mol]      -8.26772860 [kJ/mol]
      Exch-Ind20,r                 13.83578041 [mEh]       8.68208328 [kcal/mol]      36.32583646 [kJ/mol]
      Exch-Ind22                    2.02020936 [mEh]       1.26770051 [kcal/mol]       5.30405894 [kJ/mol]
      delta HF,r (2)               -5.85791571 [mEh]      -3.67589760 [kcal/mol]     -15.37995558 [kJ/mol]

    Dispersion                    -12.05103187 [mEh]      -7.56213667 [kcal/mol]     -31.63997983 [kJ/mol]
      Disp20                      -13.58479739 [mEh]      -8.52458906 [kcal/mol]     -35.66688064 [kJ/mol]
      Disp21                        0.98197729 [mEh]       0.61620005 [kcal/mol]       2.57818103 [kJ/mol]
      Disp22 (SDQ)                 -0.17685012 [mEh]      -0.11097512 [kcal/mol]      -0.46431992 [kJ/mol]
      Disp22 (T)                   -1.89573516 [mEh]      -1.18959177 [kcal/mol]      -4.97725197 [kJ/mol]
      Est. Disp22 (T)              -2.15463806 [mEh]      -1.35205580 [kcal/mol]      -5.65700146 [kJ/mol]
      Exch-Disp20                   2.88327641 [mEh]       1.80928326 [kcal/mol]       7.57004117 [kJ/mol]

  Total HF                          1.07909894 [mEh]       0.67714481 [kcal/mol]       2.83317386 [kJ/mol]
  Total SAPT0                      -9.62242205 [mEh]      -6.03816100 [kcal/mol]     -25.26366561 [kJ/mol]
  Total SAPT2                      -5.94570256 [mEh]      -3.73098469 [kcal/mol]     -15.61043992 [kJ/mol]
  Total SAPT2+                     -7.29521345 [mEh]      -4.57781555 [kcal/mol]     -19.15358028 [kJ/mol]

  Special recipe for scaled SAPT0 (see Manual):
    Electrostatics sSAPT0         -31.82902290 [mEh]     -19.97301341 [kcal/mol]     -83.56708810 [kJ/mol]
    Exchange sSAPT0                46.49684957 [mEh]      29.17721360 [kcal/mol]     122.07746172 [kJ/mol]
    Induction sSAPT0              -12.66587890 [mEh]      -7.94795900 [kcal/mol]     -33.25426047 [kJ/mol]
    Dispersion sSAPT0             -10.50920597 [mEh]      -6.59462631 [kcal/mol]     -27.59191648 [kJ/mol]
  Total sSAPT0                     -8.50725820 [mEh]      -5.33838512 [kcal/mol]     -22.33580333 [kJ/mol]
  --------------------------------------------------------------------------------------------------------

*** Psi4 exiting successfully. Buy a developer a beer!
