                               Psi4 1.9.1 release

  ==> Input File <==

--------------------------------------------------------------------------
MEMORY 10 GB

molecule dimer {
0 1
C    1.194805   1.105056   0.217010
C    1.098581  -0.235452  -0.466153
O    0.230083  -1.136243   0.231245
H    0.554363  -1.221565   1.132406
H    0.209866   1.553945   0.306714
H    1.627020   1.001440   1.211082
H    1.834187   1.772416  -0.356643
H    0.656104  -0.131699  -1.451625
H    2.081430  -0.691441  -0.581209
--
0 1
O   -1.649539   0.066273   0.007700
H   -2.419290  -0.452789  -0.229801
H   -0.943111  -0.582489   0.144045

units ang
no_reorient
no_com
symmetry c1
}

set {
basis        aug-cc-pVTZ
scf_type     df
}

energy("sapt2+")
--------------------------------------------------------------------------

  //              Dimer HF             //
    Molecular point group: c1
  Charge       = 0
  Multiplicity = 1
  Basis Set: AUG-CC-PVTZ
    Blend: AUG-CC-PVTZ
  Basis Set: (AUG-CC-PVTZ AUX)
    Blend: AUG-CC-PVTZ-JKFIT
  @DF-RHF Final Energy:  -230.17979899689001
    Total Energy =                       -230.1797989968900140
 Dipole X            :        -10.3555700           11.3482532            0.9926832
 Dipole Y            :          3.4867361           -3.9576874           -0.4709514
 Dipole Z            :         -0.9260894            1.1180961            0.1920067
 Magnitude           :                                                    1.1153841
  //            Monomer A HF           //
    Molecular point group: c1
  Multiplicity = 1
  Basis Set: AUG-CC-PVTZ
    Blend: AUG-CC-PVTZ
  Basis Set: (AUG-CC-PVTZ AUX)
    Blend: AUG-CC-PVTZ-JKFIT
  @DF-RHF Final Energy:  -154.14497567272480
    Total Energy =                       -154.1449756727247973
  //            Monomer B HF           //
    Molecular point group: c1

    Geometry (in Angstrom), charge = 0, multiplicity = 1:

       Center              X                  Y                   Z               Mass
    ------------   -----------------  -----------------  -----------------  -----------------
      Gh(C)           1.194805000000     1.105056000000     0.217010000000    12.000000000000
      Gh(C)           1.098581000000    -0.235452000000    -0.466153000000    12.000000000000
      Gh(O)           0.230083000000    -1.136243000000     0.231245000000    15.994914619570
      Gh(H)           0.554363000000    -1.221565000000     1.132406000000     1.007825032230
      Gh(H)           0.209866000000     1.553945000000     0.306714000000     1.007825032230
      Gh(H)           1.627020000000     1.001440000000     1.211082000000     1.007825032230
      Gh(H)           1.834187000000     1.772416000000    -0.356643000000     1.007825032230
      Gh(H)           0.656104000000    -0.131699000000    -1.451625000000     1.007825032230
      Gh(H)           2.081430000000    -0.691441000000    -0.581209000000     1.007825032230
         O           -1.649539000000     0.066273000000     0.007700000000    15.994914619570
         H           -2.419290000000    -0.452789000000    -0.229801000000     1.007825032230
         H           -0.943111000000    -0.582489000000     0.144045000000     1.007825032230

  Charge       = 0
  Multiplicity = 1
  Basis Set: AUG-CC-PVTZ
    Blend: AUG-CC-PVTZ
  Basis Set: (AUG-CC-PVTZ AUX)
    Blend: AUG-CC-PVTZ-JKFIT

    Orbital Energies [Eh]
    ---------------------

    Doubly Occupied:

       1A    -20.567945     2A     -1.349968     3A     -0.715139
       4A     -0.582805     5A     -0.509649

  @DF-RHF Final Energy:   -76.06024832208441

   => Energetics <=

    Nuclear Repulsion Energy =              9.1337349414559856
    One-Electron Energy =                -122.9369507028165174
    Two-Electron Energy =                  37.7429674392761285
    Total Energy =                        -76.0602483220844050
 Dipole X            :         31.2479315          -31.2914326           -0.0435010
 Dipole Y            :          0.1796508           -0.9544893           -0.7748385
 Dipole Z            :         -0.0216426           -0.0456482           -0.0672908
 Magnitude           :                                                    0.7789706

    SAPT Results
  --------------------------------------------------------------------------------------------------------
    Electrostatics                -61.63653794 [mEh]     -38.67751149 [kcal/mol]    -161.82670806 [kJ/mol]
      Elst10,r                    -60.65587822 [mEh]     -38.06213822 [kcal/mol]    -159.25198631 [kJ/mol]
      Elst12,r                     -0.98065972 [mEh]      -0.61537327 [kcal/mol]      -2.57472175 [kJ/mol]

    Exchange                      129.44636034 [mEh]      81.22881746 [kcal/mol]     339.86137224 [kJ/mol]
      Exch10                      120.26437098 [mEh]      75.46703215 [kcal/mol]     315.75406252 [kJ/mol]
      Exch10(S^2)                 114.27998900 [mEh]      71.71177576 [kcal/mol]     300.04206979 [kJ/mol]
      Exch11(S^2)                   0.75773414 [mEh]       0.47548535 [kcal/mol]       1.98943071 [kJ/mol]
      Exch12(S^2)                   8.42425521 [mEh]       5.28629995 [kcal/mol]      22.11787901 [kJ/mol]

    Induction                     -36.94056032 [mEh]     -23.18055157 [kcal/mol]     -96.98742776 [kJ/mol]
      Ind20,r                     -62.51874165 [mEh]     -39.23110268 [kcal/mol]    -164.14293360 [kJ/mol]
      Ind22                        -7.89395645 [mEh]      -4.95353246 [kcal/mol]     -20.72557981 [kJ/mol]
      Exch-Ind20,r                 40.68326980 [mEh]      25.52913722 [kcal/mol]     106.81391013 [kJ/mol]
      Exch-Ind22                    5.13689098 [mEh]       3.22344776 [kcal/mol]      13.48690541 [kJ/mol]
      delta HF,r (2)              -12.34802299 [mEh]      -7.74850141 [kcal/mol]     -32.41972990 [kJ/mol]

    Dispersion                    -20.65162180 [mEh]     -12.95908833 [kcal/mol]     -54.22082556 [kJ/mol]
      Disp20                      -25.10682106 [mEh]     -15.75476807 [kcal/mol]     -65.91794962 [kJ/mol]
      Disp21                        2.51255491 [mEh]       1.57665201 [kcal/mol]       6.59671200 [kJ/mol]
      Disp22 (SDQ)                 -0.40875610 [mEh]      -0.25649833 [kcal/mol]      -1.07318900 [kJ/mol]
      Disp22 (T)                   -3.33030188 [mEh]      -2.08979598 [kcal/mol]      -8.74370639 [kJ/mol]
      Est. Disp22 (T)              -3.70314420 [mEh]      -2.32375807 [kcal/mol]      -9.72260376 [kJ/mol]
      Exch-Disp20                   6.05454466 [mEh]       3.79928413 [kcal/mol]      15.89620481 [kJ/mol]

  Total HF                         25.42499792 [mEh]      15.95442707 [kcal/mol]      66.75332284 [kJ/mol]
  Total SAPT0                       6.37272152 [mEh]       3.99894313 [kcal/mol]      16.73157804 [kJ/mol]
  Total SAPT2                      11.81698567 [mEh]       7.41527046 [kcal/mol]      31.02549161 [kJ/mol]
  Total SAPT2+                     10.21764028 [mEh]       6.41166607 [kcal/mol]      26.82641085 [kJ/mol]

  Special recipe for scaled SAPT0 (see Manual):
    Electrostatics sSAPT0         -60.65587822 [mEh]     -38.06213822 [kcal/mol]    -159.25198631 [kJ/mol]
    Exchange sSAPT0               120.26437098 [mEh]      75.46703215 [kcal/mol]     315.75406252 [kJ/mol]
    Induction sSAPT0              -27.45171240 [mEh]     -17.22620960 [kcal/mol]     -72.07446097 [kJ/mol]
    Dispersion sSAPT0             -18.05044254 [mEh]     -11.32682370 [kcal/mol]     -47.39143035 [kJ/mol]
  Total sSAPT0                     14.10633784 [mEh]       8.85186063 [kcal/mol]      37.03618489 [kJ/mol]
  --------------------------------------------------------------------------------------------------------

*** Psi4 exiting successfully. Buy a developer a beer!
