                               Psi4 1.9.1 release

  ==> Input File <==

--------------------------------------------------------------------------
MEMORY 10 GB

molecule dimer {
0 1
C    1.194805   1.105056   0.217010
C    1.098581  -0.235452  -0.466153
O    0.230083  -1.136243   0.231245
H    0.554363  -1.221565   1.132406
H    0.209866   1.553945   0.306714
H    1.627020   1.001440   1.211082
H    1.834187   1.772416  -0.356643
H    0.656104  -0.131699  -1.451625
H    2.081430  -0.691441  -0.581209
--
0 1
O   -2.001969   0.291745  -0.034214
H   -2.771720  -0.227317  -0.271715
H   -1.295541  -0.357017   0.102131

units ang
no_reorient
no_com
symmetry c1
}

set {
basis        aug-cc-pVTZ
scf_type     df
}

energy("sapt2+")
--------------------------------------------------------------------------

  //              Dimer HF             //
    Molecular point group: c1
  Charge       = 0
  Multiplicity = 1
  Basis Set: AUG-CC-PVTZ
    Blend: AUG-CC-PVTZ
  Basis Set: (AUG-CC-PVTZ AUX)
    Blend: AUG-CC-PVTZ-JKFIT
  @DF-RHF Final Energy:  -230.20848346162433
    Total Energy =                       -230.2084834616243256
 Dipole X            :         -3.9126283            4.6882915            0.7756632
 Dipole Y            :         -0.7096881            0.3031158           -0.4065723
 Dipole Z            :         -0.1498432            0.3260363            0.1761931
 Magnitude           :                                                    0.8933075
  //            Monomer A HF           //
    Molecular point group: c1
  Multiplicity = 1
  Basis Set: AUG-CC-PVTZ
    Blend: AUG-CC-PVTZ
  Basis Set: (AUG-CC-PVTZ AUX)
    Blend: AUG-CC-PVTZ-JKFIT
  @DF-RHF Final Energy:  -154.14490501938650
    Total Energy =                       -154.1449050193864991
  //            Monomer B HF           //
    Molecular point group: c1

    Geometry (in Angstrom), charge = 0, multiplicity = 1:

       Center              X                  Y                   Z               Mass
    ------------   -----------------  -----------------  -----------------  -----------------
      Gh(C)           1.194805000000     1.105056000000     0.217010000000    12.000000000000
      Gh(C)           1.098581000000    -0.235452000000    -0.466153000000    12.000000000000
      Gh(O)           0.230083000000    -1.136243000000     0.231245000000    15.994914619570
      Gh(H)           0.554363000000    -1.221565000000     1.132406000000     1.007825032230
      Gh(H)           0.209866000000     1.553945000000     0.306714000000     1.007825032230
      Gh(H)           1.627020000000     1.001440000000     1.211082000000     1.007825032230
      Gh(H)           1.834187000000     1.772416000000    -0.356643000000     1.007825032230
      Gh(H)           0.656104000000    -0.131699000000    -1.451625000000     1.007825032230
      Gh(H)           2.081430000000    -0.691441000000    -0.581209000000     1.007825032230
         O           -2.001969000000     0.291745000000    -0.034214000000    15.994914619570
         H           -2.771720000000    -0.227317000000    -0.271715000000     1.007825032230
         H           -1.295541000000    -0.357017000000     0.102131000000     1.007825032230

  Charge       = 0
  Multiplicity = 1
  Basis Set: AUG-CC-PVTZ
    Blend: AUG-CC-PVTZ
  Basis Set: (AUG-CC-PVTZ AUX)
    Blend: AUG-CC-PVTZ-JKFIT

    Orbital Energies [Eh]
    ---------------------

    Doubly Occupied:

       1A    -20.568019     2A     -1.350008     3A     -0.715169
       4A     -0.582828     5A     -0.509669

  @DF-RHF Final Energy:   -76.06019193704910

   => Energetics <=

    Nuclear Repulsion Energy =              9.1337349414559874
    One-Electron Energy =                -122.9364670346147932
    Two-Electron Energy =                  37.7425401561097118
    Total Energy =                        -76.0601919370490975
 Dipole X            :         37.9078154          -37.9513943           -0.0435789
 Dipole Y            :         -4.0814501            3.3063140           -0.7751362
 Dipole Z            :          0.7703741           -0.8377080           -0.0673340
 Magnitude           :                                                    0.7792747

    SAPT Results
  --------------------------------------------------------------------------------------------------------
    Electrostatics                -23.92983766 [mEh]     -15.01619984 [kcal/mol]     -62.82778013 [kJ/mol]
      Elst10,r                    -23.48653629 [mEh]     -14.73802403 [kcal/mol]     -61.66389253 [kJ/mol]
      Elst12,r                     -0.44330137 [mEh]      -0.27817581 [kcal/mol]      -1.16388759 [kJ/mol]

    Exchange                       32.75301154 [mEh]      20.55282504 [kcal/mol]      85.99301995 [kJ/mol]
      Exch10                       28.79293082 [mEh]      18.06783686 [kcal/mol]      75.59582944 [kJ/mol]
      Exch10(S^2)                  28.39767381 [mEh]      17.81980935 [kcal/mol]      74.55808231 [kJ/mol]
      Exch11(S^2)                   0.32027576 [mEh]       0.20097607 [kcal/mol]       0.84088389 [kJ/mol]
      Exch12(S^2)                   3.63980496 [mEh]       2.28401210 [kcal/mol]       9.55630662 [kJ/mol]

    Induction                      -9.45717289 [mEh]      -5.93446559 [kcal/mol]     -24.82980401 [kJ/mol]
      Ind20,r                     -12.99892178 [mEh]      -8.15694656 [kcal/mol]     -34.12866443 [kJ/mol]
      Ind22                        -1.99450230 [mEh]      -1.25156909 [kcal/mol]      -5.23656506 [kJ/mol]
      Exch-Ind20,r                  8.01786597 [mEh]       5.03128686 [kcal/mol]      21.05090421 [kJ/mol]
      Exch-Ind22                    1.23022912 [mEh]       0.77198043 [kcal/mol]       3.22996611 [kJ/mol]
      delta HF,r (2)               -3.71184391 [mEh]      -2.32921722 [kcal/mol]      -9.74544484 [kJ/mol]

    Dispersion                    -10.62610419 [mEh]      -6.66798105 [kcal/mol]     -27.89883269 [kJ/mol]
      Disp20                      -10.10457106 [mEh]      -6.34071407 [kcal/mol]     -26.52954765 [kJ/mol]
      Disp21                        0.63091246 [mEh]       0.39590355 [kcal/mol]       1.65646045 [kJ/mol]
      Disp22 (SDQ)                 -0.12335161 [mEh]      -0.07740431 [kcal/mol]      -0.32385961 [kJ/mol]
      Disp22 (T)                   -2.57553782 [mEh]      -1.61617438 [kcal/mol]      -6.76207361 [kJ/mol]
      Est. Disp22 (T)              -2.96596246 [mEh]      -1.86116954 [kcal/mol]      -7.78713336 [kJ/mol]
      Exch-Disp20                   1.93686848 [mEh]       1.21540332 [kcal/mol]       5.08524749 [kJ/mol]

  Total HF                         -3.38650519 [mEh]      -2.12506409 [kcal/mol]      -8.89126815 [kJ/mol]
  Total SAPT0                     -11.55420777 [mEh]      -7.25037484 [kcal/mol]     -30.33556832 [kJ/mol]
  Total SAPT2                      -8.80170159 [mEh]      -5.52315114 [kcal/mol]     -23.10886435 [kJ/mol]
  Total SAPT2+                    -11.26010320 [mEh]      -7.06582143 [kcal/mol]     -29.56339688 [kJ/mol]

  Special recipe for scaled SAPT0 (see Manual):
    Electrostatics sSAPT0         -23.48653629 [mEh]     -14.73802403 [kcal/mol]     -61.66389253 [kJ/mol]
    Exchange sSAPT0                28.79293082 [mEh]      18.06783686 [kcal/mol]      75.59582944 [kJ/mol]
    Induction sSAPT0               -8.35342485 [mEh]      -5.24185323 [kcal/mol]     -21.93191392 [kJ/mol]
    Dispersion sSAPT0              -8.08569595 [mEh]      -5.07385081 [kcal/mol]     -21.22899179 [kJ/mol]
  Total sSAPT0                    -11.13272627 [mEh]      -6.98589121 [kcal/mol]     -29.22896880 [kJ/mol]
  --------------------------------------------------------------------------------------------------------

*** Psi4 exiting successfully. Buy a developer a beer!
