                               Psi4 1.9.1 release

  ==> Input File <==

--------------------------------------------------------------------------
MEMORY 10 GB

molecule dimer {
0 1
C    1.194805   1.105056   0.217010
C    1.098581  -0.235452  -0.466153
O    0.230083  -1.136243   0.231245
H    0.554363  -1.221565   1.132406
H    0.209866   1.553945   0.306714
H    1.627020   1.001440   1.211082
H    1.834187   1.772416  -0.356643
H    0.656104  -0.131699  -1.451625
H    2.081430  -0.691441  -0.581209
--
0 1
O   -2.119445   0.366902  -0.048186
H   -2.889196  -0.152160  -0.285687
H   -1.413017  -0.281860   0.088159

units ang
no_reorient
no_com
symmetry c1
}

set {
basis        aug-cc-pVTZ
scf_type     df
}

energy("sapt2+")
--------------------------------------------------------------------------

  //              Dimer HF             //
    Molecular point group: c1
  Charge       = 0
  Multiplicity = 1
  Basis Set: AUG-CC-PVTZ
    Blend: AUG-CC-PVTZ
  Basis Set: (AUG-CC-PVTZ AUX)
    Blend: AUG-CC-PVTZ-JKFIT
  @DF-RHF Final Energy:  -230.21053254425172
    Total Energy =                       -230.2105325442517199
 Dipole X            :         -1.7351907            2.4683168            0.7331261
 Dipole Y            :         -2.1170768            1.7233773           -0.3936994
 Dipole Z            :          0.1109794            0.0620038            0.1729832
 Magnitude           :                                                    0.8499390
  //            Monomer A HF           //
    Molecular point group: c1
  Multiplicity = 1
  Basis Set: AUG-CC-PVTZ
    Blend: AUG-CC-PVTZ
  Basis Set: (AUG-CC-PVTZ AUX)
    Blend: AUG-CC-PVTZ-JKFIT
  @DF-RHF Final Energy:  -154.14488522521884
    Total Energy =                       -154.1448852252188431
  //            Monomer B HF           //
    Molecular point group: c1

    Geometry (in Angstrom), charge = 0, multiplicity = 1:

       Center              X                  Y                   Z               Mass
    ------------   -----------------  -----------------  -----------------  -----------------
      Gh(C)           1.194805000000     1.105056000000     0.217010000000    12.000000000000
      Gh(C)           1.098581000000    -0.235452000000    -0.466153000000    12.000000000000
      Gh(O)           0.230083000000    -1.136243000000     0.231245000000    15.994914619570
      Gh(H)           0.554363000000    -1.221565000000     1.132406000000     1.007825032230
      Gh(H)           0.209866000000     1.553945000000     0.306714000000     1.007825032230
      Gh(H)           1.627020000000     1.001440000000     1.211082000000     1.007825032230
      Gh(H)           1.834187000000     1.772416000000    -0.356643000000     1.007825032230
      Gh(H)           0.656104000000    -0.131699000000    -1.451625000000     1.007825032230
      Gh(H)           2.081430000000    -0.691441000000    -0.581209000000     1.007825032230
         O           -2.119445000000     0.366902000000    -0.048186000000    15.994914619570
         H           -2.889196000000    -0.152160000000    -0.285687000000     1.007825032230
         H           -1.413017000000    -0.281860000000     0.088159000000     1.007825032230

  Charge       = 0
  Multiplicity = 1
  Basis Set: AUG-CC-PVTZ
    Blend: AUG-CC-PVTZ
  Basis Set: (AUG-CC-PVTZ AUX)
    Blend: AUG-CC-PVTZ-JKFIT

    Orbital Energies [Eh]
    ---------------------

    Doubly Occupied:

       1A    -20.568034     2A     -1.350019     3A     -0.715177
       4A     -0.582834     5A     -0.509676

  @DF-RHF Final Energy:   -76.06017648541527

   => Energetics <=

    Nuclear Repulsion Energy =              9.1337349414559856
    One-Electron Energy =                -122.9363424451749580
    Two-Electron Energy =                  37.7424310183036980
    Total Energy =                        -76.0601764854152691
 Dipole X            :         40.1277690          -40.1713690           -0.0436000
 Dipole Y            :         -5.5017887            4.7265754           -0.7752133
 Dipole Z            :          1.0343925           -1.1017406           -0.0673481
 Magnitude           :                                                    0.7793538

    SAPT Results
  --------------------------------------------------------------------------------------------------------
    Electrostatics                -17.91712976 [mEh]     -11.24316866 [kcal/mol]     -47.04141769 [kJ/mol]
      Elst10,r                    -17.65406594 [mEh]     -11.07809363 [kcal/mol]     -46.35074374 [kJ/mol]
      Elst12,r                     -0.26306382 [mEh]      -0.16507504 [kcal/mol]      -0.69067395 [kJ/mol]

    Exchange                       20.61630958 [mEh]      12.93692958 [kcal/mol]      54.12811335 [kJ/mol]
      Exch10                       17.81330627 [mEh]      11.17801845 [kcal/mol]      46.76882918 [kJ/mol]
      Exch10(S^2)                  17.65656030 [mEh]      11.07965886 [kcal/mol]      46.35729268 [kJ/mol]
      Exch11(S^2)                   0.20549904 [mEh]       0.12895259 [kcal/mol]       0.53953765 [kJ/mol]
      Exch12(S^2)                   2.59750427 [mEh]       1.62995854 [kcal/mol]       6.81974653 [kJ/mol]

    Induction                      -6.15841449 [mEh]      -3.86446344 [kcal/mol]     -16.16891503 [kJ/mol]
      Ind20,r                      -7.98010645 [mEh]      -5.00759240 [kcal/mol]     -20.95176659 [kJ/mol]
      Ind22                        -1.26683609 [mEh]      -0.79495165 [kcal/mol]      -3.32607770 [kJ/mol]
      Exch-Ind20,r                  4.65196177 [mEh]       2.91915009 [kcal/mol]      12.21372396 [kJ/mol]
      Exch-Ind22                    0.73849555 [mEh]       0.46341295 [kcal/mol]       1.93891979 [kJ/mol]
      delta HF,r (2)               -2.30192928 [mEh]      -1.44448243 [kcal/mol]      -6.04371448 [kJ/mol]

    Dispersion                     -7.23481706 [mEh]      -4.53991624 [kcal/mol]     -18.99500957 [kJ/mol]
      Disp20                       -7.57977164 [mEh]      -4.75637851 [kcal/mol]     -19.90068770 [kJ/mol]
      Disp21                        0.41650686 [mEh]       0.26136200 [kcal/mol]       1.09353861 [kJ/mol]
      Disp22 (SDQ)                 -0.08843434 [mEh]      -0.05549339 [kcal/mol]      -0.23218434 [kJ/mol]
      Disp22 (T)                   -1.10304475 [mEh]      -0.69217103 [kcal/mol]      -2.89604358 [kJ/mol]
      Est. Disp22 (T)              -1.27039237 [mEh]      -0.79718324 [kcal/mol]      -3.33541470 [kJ/mol]
      Exch-Disp20                   1.28727443 [mEh]       0.80777690 [kcal/mol]       3.37973856 [kJ/mol]

  Total HF                         -5.47083362 [mEh]      -3.43299992 [kcal/mol]     -14.36367168 [kJ/mol]
  Total SAPT0                     -11.76333083 [mEh]      -7.38160154 [kcal/mol]     -30.88462083 [kJ/mol]
  Total SAPT2                      -9.75173188 [mEh]      -6.11930414 [kcal/mol]     -25.60316851 [kJ/mol]
  Total SAPT2+                    -10.69405173 [mEh]      -6.71061877 [kcal/mol]     -28.07722894 [kJ/mol]

  Special recipe for scaled SAPT0 (see Manual):
    Electrostatics sSAPT0         -17.65406594 [mEh]     -11.07809363 [kcal/mol]     -46.35074374 [kJ/mol]
    Exchange sSAPT0                17.81330627 [mEh]      11.17801845 [kcal/mol]      46.76882918 [kJ/mol]
    Induction sSAPT0               -5.50507757 [mEh]      -3.45448833 [kcal/mol]     -14.45357918 [kJ/mol]
    Dispersion sSAPT0              -6.25790865 [mEh]      -3.92689697 [kcal/mol]     -16.43013690 [kJ/mol]
  Total sSAPT0                    -11.60374589 [mEh]      -7.28146048 [kcal/mol]     -30.46563065 [kJ/mol]
  --------------------------------------------------------------------------------------------------------

*** Psi4 exiting successfully. Buy a developer a beer!
