                               Psi4 1.9.1 release

  ==> Input File <==

--------------------------------------------------------------------------
MEMORY 10 GB

molecule dimer {
0 1
C    1.194805   1.105056   0.217010
C    1.098581  -0.235452  -0.466153
O    0.230083  -1.136243   0.231245
H    0.554363  -1.221565   1.132406
H    0.209866   1.553945   0.306714
H    1.627020   1.001440   1.211082
H    1.834187   1.772416  -0.356643
H    0.656104  -0.131699  -1.451625
H    2.081430  -0.691441  -0.581209
--
0 1
O   -2.354398   0.517217  -0.076129
H   -3.124149  -0.001845  -0.313630
H   -1.647970  -0.131545   0.060216

units ang
no_reorient
no_com
symmetry c1
}

set {
basis        aug-cc-pVTZ
scf_type     df
}

energy("sapt2+")
--------------------------------------------------------------------------

  //              Dimer HF             //
    Molecular point group: c1
  Charge       = 0
  Multiplicity = 1
  Basis Set: AUG-CC-PVTZ
    Blend: AUG-CC-PVTZ
  Basis Set: (AUG-CC-PVTZ AUX)
    Blend: AUG-CC-PVTZ-JKFIT
  @DF-RHF Final Energy:  -230.21127416302798
    Total Energy =                       -230.2112741630279800
 Dipole X            :          2.6468767           -1.9716514            0.6752253
 Dipole Y            :         -4.9411493            4.5639191           -0.3772302
 Dipole Z            :          0.6349828           -0.4660424            0.1689404
 Magnitude           :                                                    0.7916898
  //            Monomer A HF           //
    Molecular point group: c1
  Multiplicity = 1
  Basis Set: AUG-CC-PVTZ
    Blend: AUG-CC-PVTZ
  Basis Set: (AUG-CC-PVTZ AUX)
    Blend: AUG-CC-PVTZ-JKFIT
  @DF-RHF Final Energy:  -154.14486674962458
    Total Energy =                       -154.1448667496245832
  //            Monomer B HF           //
    Molecular point group: c1

    Geometry (in Angstrom), charge = 0, multiplicity = 1:

       Center              X                  Y                   Z               Mass
    ------------   -----------------  -----------------  -----------------  -----------------
      Gh(C)           1.194805000000     1.105056000000     0.217010000000    12.000000000000
      Gh(C)           1.098581000000    -0.235452000000    -0.466153000000    12.000000000000
      Gh(O)           0.230083000000    -1.136243000000     0.231245000000    15.994914619570
      Gh(H)           0.554363000000    -1.221565000000     1.132406000000     1.007825032230
      Gh(H)           0.209866000000     1.553945000000     0.306714000000     1.007825032230
      Gh(H)           1.627020000000     1.001440000000     1.211082000000     1.007825032230
      Gh(H)           1.834187000000     1.772416000000    -0.356643000000     1.007825032230
      Gh(H)           0.656104000000    -0.131699000000    -1.451625000000     1.007825032230
      Gh(H)           2.081430000000    -0.691441000000    -0.581209000000     1.007825032230
         O           -2.354398000000     0.517217000000    -0.076129000000    15.994914619570
         H           -3.124149000000    -0.001845000000    -0.313630000000     1.007825032230
         H           -1.647970000000    -0.131545000000     0.060216000000     1.007825032230

  Charge       = 0
  Multiplicity = 1
  Basis Set: AUG-CC-PVTZ
    Blend: AUG-CC-PVTZ
  Basis Set: (AUG-CC-PVTZ AUX)
    Blend: AUG-CC-PVTZ-JKFIT

    Orbital Energies [Eh]
    ---------------------

    Doubly Occupied:

       1A    -20.568061     2A     -1.350038     3A     -0.715191
       4A     -0.582845     5A     -0.509690

  @DF-RHF Final Energy:   -76.06015429014202

   => Energetics <=

    Nuclear Repulsion Energy =              9.1337349414559856
    One-Electron Energy =                -122.9361270298665687
    Two-Electron Energy =                  37.7422377982685617
    Total Energy =                        -76.0601542901420231
 Dipole X            :         44.5677029          -44.6113372           -0.0436344
 Dipole Y            :         -8.3424193            7.5671173           -0.7753020
 Dipole Z            :          1.5623968           -1.6297867           -0.0673899
 Magnitude           :                                                    0.7794476

    SAPT Results
  --------------------------------------------------------------------------------------------------------
    Electrostatics                -10.62093201 [mEh]      -6.66473545 [kcal/mol]     -27.88525314 [kJ/mol]
      Elst10,r                    -10.60660889 [mEh]      -6.65574757 [kcal/mol]     -27.84764782 [kJ/mol]
      Elst12,r                     -0.01432311 [mEh]      -0.00898789 [kcal/mol]      -0.03760532 [kJ/mol]

    Exchange                        8.15297610 [mEh]       5.11606974 [kcal/mol]      21.40563580 [kJ/mol]
      Exch10                        6.82042529 [mEh]       4.27988149 [kcal/mol]      17.90702414 [kJ/mol]
      Exch10(S^2)                   6.79591548 [mEh]       4.26450135 [kcal/mol]      17.84267364 [kJ/mol]
      Exch11(S^2)                   0.07704430 [mEh]       0.04834603 [kcal/mol]       0.20227977 [kJ/mol]
      Exch12(S^2)                   1.25550651 [mEh]       0.78784223 [kcal/mol]       3.29633189 [kJ/mol]

    Induction                      -2.72643129 [mEh]      -1.71086146 [kcal/mol]      -7.15824435 [kJ/mol]
      Ind20,r                      -3.17785968 [mEh]      -1.99413706 [kcal/mol]      -8.34346944 [kJ/mol]
      Ind22                        -0.51494948 [mEh]      -0.32313568 [kcal/mol]      -1.35199967 [kJ/mol]
      Exch-Ind20,r                  1.57648321 [mEh]       0.98925815 [kcal/mol]       4.13905610 [kJ/mol]
      Exch-Ind22                    0.25545785 [mEh]       0.16030222 [kcal/mol]       0.67070450 [kJ/mol]
      delta HF,r (2)               -0.86556319 [mEh]      -0.54314910 [kcal/mol]      -2.27253584 [kJ/mol]

    Dispersion                     -4.42872576 [mEh]      -2.77906737 [kcal/mol]     -11.62761788 [kJ/mol]
      Disp20                       -4.38146170 [mEh]      -2.74940873 [kcal/mol]     -11.50352611 [kJ/mol]
      Disp21                        0.20130763 [mEh]       0.12632245 [kcal/mol]       0.52853312 [kJ/mol]
      Disp22 (SDQ)                 -0.04619745 [mEh]      -0.02898934 [kcal/mol]      -0.12129139 [kJ/mol]
      Disp22 (T)                   -0.66544610 [mEh]      -0.41757373 [kcal/mol]      -1.74712851 [kJ/mol]
      Est. Disp22 (T)              -0.76048879 [mEh]      -0.47721392 [kcal/mol]      -1.99666304 [kJ/mol]
      Exch-Disp20                   0.55811455 [mEh]       0.35022216 [kcal/mol]       1.46532954 [kJ/mol]

  Total HF                         -6.25312326 [mEh]      -3.92389409 [kcal/mol]     -16.41757286 [kJ/mol]
  Total SAPT0                     -10.07647042 [mEh]      -6.32308065 [kcal/mol]     -26.45576944 [kJ/mol]
  Total SAPT2                      -9.01773435 [mEh]      -5.65871374 [kcal/mol]     -23.67605827 [kJ/mol]
  Total SAPT2+                     -9.62311295 [mEh]      -6.03859455 [kcal/mol]     -25.26547958 [kJ/mol]

  Special recipe for scaled SAPT0 (see Manual):
    Electrostatics sSAPT0         -10.60660889 [mEh]      -6.65574757 [kcal/mol]     -27.84764782 [kJ/mol]
    Exchange sSAPT0                 6.82042529 [mEh]       4.27988149 [kcal/mol]      17.90702414 [kJ/mol]
    Induction sSAPT0               -2.44982107 [mEh]      -1.53728593 [kcal/mol]      -6.43200433 [kJ/mol]
    Dispersion sSAPT0              -3.81728675 [mEh]      -2.39538360 [kcal/mol]     -10.02228497 [kJ/mol]
  Total sSAPT0                    -10.05329142 [mEh]      -6.30853561 [kcal/mol]     -26.39491299 [kJ/mol]
  --------------------------------------------------------------------------------------------------------

*** Psi4 exiting successfully. Buy a developer a beer!
