                               Psi4 1.9.1 release

  ==> Input File <==

--------------------------------------------------------------------------
MEMORY 10 GB

molecule dimer {
0 1
C    1.194805   1.105056   0.217010
C    1.098581  -0.235452  -0.466153
O    0.230083  -1.136243   0.231245
H    0.554363  -1.221565   1.132406
H    0.209866   1.553945   0.306714
H    1.627020   1.001440   1.211082
H    1.834187   1.772416  -0.356643
H    0.656104  -0.131699  -1.451625
H    2.081430  -0.691441  -0.581209
--
0 1
O   -2.236921   0.442059  -0.062158
H   -3.006672  -0.077003  -0.299659
H   -1.530493  -0.206703   0.074187

units ang
no_reorient
no_com
symmetry c1
}

set {
basis        aug-cc-pVTZ
scf_type     df
}

energy("sapt2+")
--------------------------------------------------------------------------

  //              Dimer HF             //
    Molecular point group: c1
  Charge       = 0
  Multiplicity = 1
  Basis Set: AUG-CC-PVTZ
    Blend: AUG-CC-PVTZ
  Basis Set: (AUG-CC-PVTZ AUX)
    Blend: AUG-CC-PVTZ-JKFIT
  @DF-RHF Final Energy:  -230.21125794630143
    Total Energy =                       -230.2112579463014299
 Dipole X            :          0.4520970            0.2483421            0.7004392
 Dipole Y            :         -3.5277720            3.1436388           -0.3841332
 Dipole Z            :          0.3726520           -0.2020287            0.1706233
 Magnitude           :                                                    0.8168755
  //            Monomer A HF           //
    Molecular point group: c1
  Multiplicity = 1
  Basis Set: AUG-CC-PVTZ
    Blend: AUG-CC-PVTZ
  Basis Set: (AUG-CC-PVTZ AUX)
    Blend: AUG-CC-PVTZ-JKFIT
  @DF-RHF Final Energy:  -154.14487168723005
    Total Energy =                       -154.1448716872300508
  //            Monomer B HF           //
    Molecular point group: c1

    Geometry (in Angstrom), charge = 0, multiplicity = 1:

       Center              X                  Y                   Z               Mass
    ------------   -----------------  -----------------  -----------------  -----------------
      Gh(C)           1.194805000000     1.105056000000     0.217010000000    12.000000000000
      Gh(C)           1.098581000000    -0.235452000000    -0.466153000000    12.000000000000
      Gh(O)           0.230083000000    -1.136243000000     0.231245000000    15.994914619570
      Gh(H)           0.554363000000    -1.221565000000     1.132406000000     1.007825032230
      Gh(H)           0.209866000000     1.553945000000     0.306714000000     1.007825032230
      Gh(H)           1.627020000000     1.001440000000     1.211082000000     1.007825032230
      Gh(H)           1.834187000000     1.772416000000    -0.356643000000     1.007825032230
      Gh(H)           0.656104000000    -0.131699000000    -1.451625000000     1.007825032230
      Gh(H)           2.081430000000    -0.691441000000    -0.581209000000     1.007825032230
         O           -2.236921000000     0.442059000000    -0.062158000000    15.994914619570
         H           -3.006672000000    -0.077003000000    -0.299659000000     1.007825032230
         H           -1.530493000000    -0.206703000000     0.074187000000     1.007825032230

  Charge       = 0
  Multiplicity = 1
  Basis Set: AUG-CC-PVTZ
    Blend: AUG-CC-PVTZ
  Basis Set: (AUG-CC-PVTZ AUX)
    Blend: AUG-CC-PVTZ-JKFIT

    Orbital Energies [Eh]
    ---------------------

    Doubly Occupied:

       1A    -20.568048     2A     -1.350029     3A     -0.715184
       4A     -0.582839     5A     -0.509683

  @DF-RHF Final Energy:   -76.06016368953007

   => Energetics <=

    Nuclear Repulsion Energy =              9.1337349414559874
    One-Electron Energy =                -122.9362289427876647
    Two-Electron Energy =                  37.7423303118016236
    Total Energy =                        -76.0601636895300572
 Dipole X            :         42.3477242          -42.3913437           -0.0436194
 Dipole Y            :         -6.9221034            6.1468369           -0.7752665
 Dipole Z            :          1.2984064           -1.3657731           -0.0673667
 Magnitude           :                                                    0.7794095

    SAPT Results
  --------------------------------------------------------------------------------------------------------
    Electrostatics                -13.66331793 [mEh]      -8.57386144 [kcal/mol]     -35.87303628 [kJ/mol]
      Elst10,r                    -13.54349788 [mEh]      -8.49867323 [kcal/mol]     -35.55844879 [kJ/mol]
      Elst12,r                     -0.11982005 [mEh]      -0.07518822 [kcal/mol]      -0.31458749 [kJ/mol]

    Exchange                       12.96552273 [mEh]       8.13598834 [kcal/mol]      34.04097523 [kJ/mol]
      Exch10                       11.01904763 [mEh]       6.91455678 [kcal/mol]      28.93050556 [kJ/mol]
      Exch10(S^2)                  10.95707772 [mEh]       6.87567008 [kcal/mol]      28.76780359 [kJ/mol]
      Exch11(S^2)                   0.12729620 [mEh]       0.07987957 [kcal/mol]       0.33421612 [kJ/mol]
      Exch12(S^2)                   1.81917890 [mEh]       1.14155200 [kcal/mol]       4.77625355 [kJ/mol]

    Induction                      -4.06748023 [mEh]      -2.55238238 [kcal/mol]     -10.67916786 [kJ/mol]
      Ind20,r                      -4.98926250 [mEh]      -3.13080948 [kcal/mol]     -13.09930688 [kJ/mol]
      Ind22                        -0.80664030 [mEh]      -0.50617443 [kcal/mol]      -2.11783382 [kJ/mol]
      Exch-Ind20,r                  2.70467707 [mEh]       1.69721048 [kcal/mol]       7.10112866 [kJ/mol]
      Exch-Ind22                    0.43727936 [mEh]       0.27439694 [kcal/mol]       1.14807681 [kJ/mol]
      delta HF,r (2)               -1.41353386 [mEh]      -0.88700589 [kcal/mol]      -3.71123263 [kJ/mol]

    Dispersion                     -5.64709281 [mEh]      -3.54360424 [kcal/mol]     -14.82644014 [kJ/mol]
      Disp20                       -5.73677085 [mEh]      -3.59987806 [kcal/mol]     -15.06188980 [kJ/mol]
      Disp21                        0.28419727 [mEh]       0.17833648 [kcal/mol]       0.74615982 [kJ/mol]
      Disp22 (SDQ)                 -0.06410528 [mEh]      -0.04022667 [kcal/mol]      -0.16830840 [kJ/mol]
      Disp22 (T)                   -0.85031671 [mEh]      -0.53358179 [kcal/mol]      -2.23250621 [kJ/mol]
      Est. Disp22 (T)              -0.97991942 [mEh]      -0.61490872 [kcal/mol]      -2.57277807 [kJ/mol]
      Exch-Disp20                   0.84950547 [mEh]       0.53307273 [kcal/mol]       2.23037631 [kJ/mol]

  Total HF                         -6.22256954 [mEh]      -3.90472134 [kcal/mol]     -16.33735408 [kJ/mol]
  Total SAPT0                     -11.10983492 [mEh]      -6.97152667 [kcal/mol]     -29.16886757 [kJ/mol]
  Total SAPT2                      -9.65254081 [mEh]      -6.05706080 [kcal/mol]     -25.34274241 [kJ/mol]
  Total SAPT2+                    -10.41236824 [mEh]      -6.53385972 [kcal/mol]     -27.33766906 [kJ/mol]

  Special recipe for scaled SAPT0 (see Manual):
    Electrostatics sSAPT0         -13.54349788 [mEh]      -8.49867323 [kcal/mol]     -35.55844879 [kJ/mol]
    Exchange sSAPT0                11.01904763 [mEh]       6.91455678 [kcal/mol]      28.93050556 [kJ/mol]
    Induction sSAPT0               -3.65196876 [mEh]      -2.29164499 [kcal/mol]      -9.58824265 [kJ/mol]
    Dispersion sSAPT0              -4.87277007 [mEh]      -3.05770938 [kcal/mol]     -12.79345606 [kJ/mol]
  Total sSAPT0                    -11.04918908 [mEh]      -6.93347083 [kcal/mol]     -29.00964194 [kJ/mol]
  --------------------------------------------------------------------------------------------------------

*** Psi4 exiting successfully. Buy a developer a beer!
