                               Psi4 1.9 release

  ==> Input File <==

--------------------------------------------------------------------------
MEMORY 10 GB

molecule dimer {
0 1
C   -2.030209   0.997443  -0.592376
C   -1.989538  -0.031828   0.501206
O   -1.814960  -1.297402  -0.098206
H   -1.828193  -1.971728   0.583684
H   -2.150918   1.999901  -0.178206
H   -2.860130   0.800002  -1.272927
H   -1.104947   0.974569  -1.172596
H   -2.918904   0.000104   1.087134
H   -1.163856   0.188909   1.195581
--
0 1
C    1.633417   1.259863   0.300772
C    1.550833  -0.238458   0.213553
O    2.729829  -0.701850  -0.406992
H    2.645768  -1.642561  -0.571650
H    0.748347   1.670689   0.791741
H    1.707554   1.695977  -0.697447
H    2.515552   1.563226   0.867642
H    0.658644  -0.540506  -0.353616
H    1.445112  -0.666676   1.223317

units ang
no_reorient
no_com
symmetry c1
}

set {
basis        aug-cc-pVTZ
scf_type     df
}

energy("sapt2+")
--------------------------------------------------------------------------

  //              Dimer HF             //
    Molecular point group: c1
  Charge       = 0
  Multiplicity = 1
  Basis Set: AUG-CC-PVTZ
    Blend: AUG-CC-PVTZ
  Basis Set: (AUG-CC-PVTZ AUX)
    Blend: AUG-CC-PVTZ-JKFIT
  @DF-RHF Final Energy:  -308.28843095617248
    Total Energy =                       -308.2884309561724763
 Dipole X            :         -0.6829672           -0.0000019           -0.6829691
 Dipole Y            :         -0.2586861            0.0000189           -0.2586672
 Dipole Z            :          0.7431395            0.0000057            0.7431452
 Magnitude           :                                                    1.0419310
  //            Monomer A HF           //
    Molecular point group: c1
  Multiplicity = 1
  Basis Set: AUG-CC-PVTZ
    Blend: AUG-CC-PVTZ
  Basis Set: (AUG-CC-PVTZ AUX)
    Blend: AUG-CC-PVTZ-JKFIT
  @DF-RHF Final Energy:  -154.14564703105518
    Total Energy =                       -154.1456470310551765
  //            Monomer B HF           //
    Molecular point group: c1

    Geometry (in Angstrom), charge = 0, multiplicity = 1:

       Center              X                  Y                   Z               Mass
    ------------   -----------------  -----------------  -----------------  -----------------
      Gh(C)          -2.030209000000     0.997443000000    -0.592376000000    12.000000000000
      Gh(C)          -1.989538000000    -0.031828000000     0.501206000000    12.000000000000
      Gh(O)          -1.814960000000    -1.297402000000    -0.098206000000    15.994914619570
      Gh(H)          -1.828193000000    -1.971728000000     0.583684000000     1.007825032230
      Gh(H)          -2.150918000000     1.999901000000    -0.178206000000     1.007825032230
      Gh(H)          -2.860130000000     0.800002000000    -1.272927000000     1.007825032230
      Gh(H)          -1.104947000000     0.974569000000    -1.172596000000     1.007825032230
      Gh(H)          -2.918904000000     0.000104000000     1.087134000000     1.007825032230
      Gh(H)          -1.163856000000     0.188909000000     1.195581000000     1.007825032230
         C            1.633417000000     1.259863000000     0.300772000000    12.000000000000
         C            1.550833000000    -0.238458000000     0.213553000000    12.000000000000
         O            2.729829000000    -0.701850000000    -0.406992000000    15.994914619570
         H            2.645768000000    -1.642561000000    -0.571650000000     1.007825032230
         H            0.748347000000     1.670689000000     0.791741000000     1.007825032230
         H            1.707554000000     1.695977000000    -0.697447000000     1.007825032230
         H            2.515552000000     1.563226000000     0.867642000000     1.007825032230
         H            0.658644000000    -0.540506000000    -0.353616000000     1.007825032230
         H            1.445112000000    -0.666676000000     1.223317000000     1.007825032230

  Charge       = 0
  Multiplicity = 1
  Basis Set: AUG-CC-PVTZ
    Blend: AUG-CC-PVTZ
  Basis Set: (AUG-CC-PVTZ AUX)
    Blend: AUG-CC-PVTZ-JKFIT

    Orbital Energies [Eh]
    ---------------------

    Doubly Occupied:

       1A    -20.556062     2A    -11.273972     3A    -11.210881
       4A     -1.362529     5A     -1.013709     6A     -0.833184
       7A     -0.703955     8A     -0.644965     9A     -0.574177
      10A     -0.533680    11A     -0.524085    12A     -0.489368
      13A     -0.439785

  @DF-RHF Final Energy:  -154.14552022893218

   => Energetics <=

    Nuclear Repulsion Energy =             82.2615160057312238
    One-Electron Energy =                -372.4933676837811163
    Two-Electron Energy =                 136.0863314491177221
    Total Energy =                       -154.1455202289321846
 Dipole X            :        -96.2741204           95.7431801           -0.5309402
 Dipole Y            :         -5.2615644            4.9015319           -0.3600324
 Dipole Z            :         -1.9118424            2.0598034            0.1479609
 Magnitude           :                                                    0.6583414

    SAPT Results
  --------------------------------------------------------------------------------------------------------
    Electrostatics                 -2.93981077 [mEh]      -1.84475911 [kcal/mol]      -7.71847211 [kJ/mol]
      Elst10,r                     -2.51369416 [mEh]      -1.57736690 [kcal/mol]      -6.59970310 [kJ/mol]
      Elst12,r                     -0.42611661 [mEh]      -0.26739221 [kcal/mol]      -1.11876901 [kJ/mol]

    Exchange                        6.79926915 [mEh]       4.26660581 [kcal/mol]      17.85147869 [kJ/mol]
      Exch10                        5.98395322 [mEh]       3.75498733 [kcal/mol]      15.71086700 [kJ/mol]
      Exch10(S^2)                   5.96826112 [mEh]       3.74514040 [kcal/mol]      15.66966742 [kJ/mol]
      Exch11(S^2)                   0.12196439 [mEh]       0.07653381 [kcal/mol]       0.32021745 [kJ/mol]
      Exch12(S^2)                   0.69335155 [mEh]       0.43508467 [kcal/mol]       1.82039424 [kJ/mol]

    Induction                      -0.77738416 [mEh]      -0.48781593 [kcal/mol]      -2.04102184 [kJ/mol]
      Ind20,r                      -1.46633252 [mEh]      -0.92013755 [kcal/mol]      -3.84985551 [kJ/mol]
      Ind22                        -0.21529867 [mEh]      -0.13510195 [kcal/mol]      -0.56526658 [kJ/mol]
      Exch-Ind20,r                  1.17055161 [mEh]       0.73453223 [kcal/mol]       3.07328283 [kJ/mol]
      Exch-Ind22                    0.17186975 [mEh]       0.10784990 [kcal/mol]       0.45124396 [kJ/mol]
      delta HF,r (2)               -0.43817433 [mEh]      -0.27495855 [kcal/mol]      -1.15042655 [kJ/mol]

    Dispersion                     -6.53564422 [mEh]      -4.10117866 [kcal/mol]     -17.15933152 [kJ/mol]
      Disp20                       -6.69262380 [mEh]      -4.19968484 [kcal/mol]     -17.57148136 [kJ/mol]
      Disp21                        0.29936796 [mEh]       0.18785623 [kcal/mol]       0.78599047 [kJ/mol]
      Disp22 (SDQ)                  0.20439128 [mEh]       0.12825746 [kcal/mol]       0.53662923 [kJ/mol]
      Disp22 (T)                   -0.92122472 [mEh]      -0.57807724 [kcal/mol]      -2.41867518 [kJ/mol]
      Est. Disp22 (T)              -1.03129010 [mEh]      -0.64714431 [kcal/mol]      -2.70765177 [kJ/mol]
      Exch-Disp20                   0.68451044 [mEh]       0.42953678 [kcal/mol]       1.79718191 [kJ/mol]

  Total HF                          2.73630381 [mEh]       1.71705657 [kcal/mol]       7.18416468 [kJ/mol]
  Total SAPT0                      -3.27180954 [mEh]      -2.05309149 [kcal/mol]      -8.59013478 [kJ/mol]
  Total SAPT2                      -2.92603914 [mEh]      -1.83611728 [kcal/mol]      -7.68231471 [kJ/mol]
  Total SAPT2+                     -3.45357000 [mEh]      -2.16714789 [kcal/mol]      -9.06734678 [kJ/mol]

  Special recipe for scaled SAPT0 (see Manual):
    Electrostatics sSAPT0          -2.51369416 [mEh]      -1.57736690 [kcal/mol]      -6.59970310 [kJ/mol]
    Exchange sSAPT0                 5.98395322 [mEh]       3.75498733 [kcal/mol]      15.71086700 [kJ/mol]
    Induction sSAPT0               -0.72469790 [mEh]      -0.45475480 [kcal/mol]      -1.90269408 [kJ/mol]
    Dispersion sSAPT0              -6.00269989 [mEh]      -3.76675105 [kcal/mol]     -15.76008639 [kJ/mol]
  Total sSAPT0                     -3.25713873 [mEh]      -2.04388541 [kcal/mol]      -8.55161656 [kJ/mol]
  --------------------------------------------------------------------------------------------------------

*** Psi4 exiting successfully. Buy a developer a beer!
