                               Psi4 1.9 release

  ==> Input File <==

--------------------------------------------------------------------------
MEMORY 10 GB

molecule dimer {
0 1
C   -1.309712  -0.853776   0.863334
C   -1.701819  -0.227589  -0.444987
O   -2.876766   0.525994  -0.229083
H   -3.094015   0.998003  -1.034725
H   -0.412837  -1.466231   0.745249
H   -2.112986  -1.486037   1.246490
H   -1.103432  -0.080066   1.606280
H   -1.872359  -1.011301  -1.198893
H   -0.881844   0.407298  -0.806420
--
0 1
C    2.279357  -0.789068  -0.713279
C    2.149938   0.140264   0.460358
O    1.374803   1.246626   0.053159
H    1.239156   1.830443   0.801993
H    2.883538  -1.660403  -0.456081
H    2.749795  -0.277405  -1.554771
H    1.294997  -1.135167  -1.037562
H    3.144919   0.462465   0.799465
H    1.674180  -0.381532   1.303808

units ang
no_reorient
no_com
symmetry c1
}

set {
basis        aug-cc-pVTZ
scf_type     df
}

energy("sapt2+")
--------------------------------------------------------------------------

  //              Dimer HF             //
    Molecular point group: c1
  Charge       = 0
  Multiplicity = 1
  Basis Set: AUG-CC-PVTZ
    Blend: AUG-CC-PVTZ
  Basis Set: (AUG-CC-PVTZ AUX)
    Blend: AUG-CC-PVTZ-JKFIT
  @DF-RHF Final Energy:  -308.28901327312951
    Total Energy =                       -308.2890132731295125
 Dipole X            :          0.6769687           -0.0000151            0.6769536
 Dipole Y            :         -0.0782764            0.0000246           -0.0782518
 Dipole Z            :          0.0232933           -0.0000057            0.0232876
 Magnitude           :                                                    0.6818591
  //            Monomer A HF           //
    Molecular point group: c1
  Multiplicity = 1
  Basis Set: AUG-CC-PVTZ
    Blend: AUG-CC-PVTZ
  Basis Set: (AUG-CC-PVTZ AUX)
    Blend: AUG-CC-PVTZ-JKFIT
  @DF-RHF Final Energy:  -154.14552008992391
    Total Energy =                       -154.1455200899239060
  //            Monomer B HF           //
    Molecular point group: c1

    Geometry (in Angstrom), charge = 0, multiplicity = 1:

       Center              X                  Y                   Z               Mass
    ------------   -----------------  -----------------  -----------------  -----------------
      Gh(C)          -1.309712000000    -0.853776000000     0.863334000000    12.000000000000
      Gh(C)          -1.701819000000    -0.227589000000    -0.444987000000    12.000000000000
      Gh(O)          -2.876766000000     0.525994000000    -0.229083000000    15.994914619570
      Gh(H)          -3.094015000000     0.998003000000    -1.034725000000     1.007825032230
      Gh(H)          -0.412837000000    -1.466231000000     0.745249000000     1.007825032230
      Gh(H)          -2.112986000000    -1.486037000000     1.246490000000     1.007825032230
      Gh(H)          -1.103432000000    -0.080066000000     1.606280000000     1.007825032230
      Gh(H)          -1.872359000000    -1.011301000000    -1.198893000000     1.007825032230
      Gh(H)          -0.881844000000     0.407298000000    -0.806420000000     1.007825032230
         C            2.279357000000    -0.789068000000    -0.713279000000    12.000000000000
         C            2.149938000000     0.140264000000     0.460358000000    12.000000000000
         O            1.374803000000     1.246626000000     0.053159000000    15.994914619570
         H            1.239156000000     1.830443000000     0.801993000000     1.007825032230
         H            2.883538000000    -1.660403000000    -0.456081000000     1.007825032230
         H            2.749795000000    -0.277405000000    -1.554771000000     1.007825032230
         H            1.294997000000    -1.135167000000    -1.037562000000     1.007825032230
         H            3.144919000000     0.462465000000     0.799465000000     1.007825032230
         H            1.674180000000    -0.381532000000     1.303808000000     1.007825032230

  Charge       = 0
  Multiplicity = 1
  Basis Set: AUG-CC-PVTZ
    Blend: AUG-CC-PVTZ
  Basis Set: (AUG-CC-PVTZ AUX)
    Blend: AUG-CC-PVTZ-JKFIT

    Orbital Energies [Eh]
    ---------------------

    Doubly Occupied:

       1A    -20.555719     2A    -11.273705     3A    -11.210759
       4A     -1.361987     5A     -1.013934     6A     -0.833266
       7A     -0.703543     8A     -0.645618     9A     -0.573884
      10A     -0.533651    11A     -0.524035    12A     -0.488954
      13A     -0.440076

  @DF-RHF Final Energy:  -154.14566953638629

   => Energetics <=

    Nuclear Repulsion Energy =             82.2722235998383411
    One-Electron Energy =                -372.5175242046358335
    Two-Electron Energy =                 136.0996310684111847
    Total Energy =                       -154.1456695363862934
 Dipole X            :        -95.3122279           95.5460250            0.2337971
 Dipole Y            :         -9.4054728            9.2947786           -0.1106942
 Dipole Z            :          2.9378450           -2.3345714            0.6032736
 Magnitude           :                                                    0.6563942

    SAPT Results
  --------------------------------------------------------------------------------------------------------
    Electrostatics                 -3.44168145 [mEh]      -2.15968771 [kcal/mol]      -9.03613339 [kJ/mol]
      Elst10,r                     -3.10151909 [mEh]      -1.94623261 [kcal/mol]      -8.14303724 [kJ/mol]
      Elst12,r                     -0.34016236 [mEh]      -0.21345510 [kcal/mol]      -0.89309615 [kJ/mol]

    Exchange                        7.03067588 [mEh]       4.41181572 [kcal/mol]      18.45903698 [kJ/mol]
      Exch10                        6.16016943 [mEh]       3.86556468 [kcal/mol]      16.17352261 [kJ/mol]
      Exch10(S^2)                   6.14717663 [mEh]       3.85741157 [kcal/mol]      16.13941002 [kJ/mol]
      Exch11(S^2)                   0.09426953 [mEh]       0.05915503 [kcal/mol]       0.24750463 [kJ/mol]
      Exch12(S^2)                   0.77623691 [mEh]       0.48709602 [kcal/mol]       2.03800974 [kJ/mol]

    Induction                      -0.95199293 [mEh]      -0.59738459 [kcal/mol]      -2.49945710 [kJ/mol]
      Ind20,r                      -1.53450936 [mEh]      -0.96291916 [kcal/mol]      -4.02885376 [kJ/mol]
      Ind22                        -0.24216845 [mEh]      -0.15196300 [kcal/mol]      -0.63581319 [kJ/mol]
      Exch-Ind20,r                  1.09287954 [mEh]       0.68579226 [kcal/mol]       2.86935484 [kJ/mol]
      Exch-Ind22                    0.17247268 [mEh]       0.10822824 [kcal/mol]       0.45282697 [kJ/mol]
      delta HF,r (2)               -0.44066735 [mEh]      -0.27652294 [kcal/mol]      -1.15697197 [kJ/mol]

    Dispersion                     -6.36082096 [mEh]      -3.99147542 [kcal/mol]     -16.70033314 [kJ/mol]
      Disp20                       -6.45925040 [mEh]      -4.05324082 [kcal/mol]     -16.95875959 [kJ/mol]
      Disp21                        0.28864548 [mEh]       0.18112777 [kcal/mol]       0.75783861 [kJ/mol]
      Disp22 (SDQ)                  0.15192365 [mEh]       0.09533353 [kcal/mol]       0.39887548 [kJ/mol]
      Disp22 (T)                   -0.91032582 [mEh]      -0.57123808 [kcal/mol]      -2.39006012 [kJ/mol]
      Est. Disp22 (T)              -1.01582209 [mEh]      -0.63743798 [kcal/mol]      -2.66704052 [kJ/mol]
      Exch-Disp20                   0.67368240 [mEh]       0.42274209 [kcal/mol]       1.76875289 [kJ/mol]

  Total HF                          2.17635318 [mEh]       1.36568224 [kcal/mol]       5.71401449 [kJ/mol]
  Total SAPT0                      -3.60921482 [mEh]      -2.26481650 [kcal/mol]      -9.47599222 [kJ/mol]
  Total SAPT2                      -3.14856650 [mEh]      -1.97575531 [kcal/mol]      -8.26656022 [kJ/mol]
  Total SAPT2+                     -3.72381946 [mEh]      -2.33673199 [kcal/mol]      -9.77688665 [kJ/mol]

  Special recipe for scaled SAPT0 (see Manual):
    Electrostatics sSAPT0          -3.10151909 [mEh]      -1.94623261 [kcal/mol]      -8.14303724 [kJ/mol]
    Exchange sSAPT0                 6.16016943 [mEh]       3.86556468 [kcal/mol]      16.17352261 [kJ/mol]
    Induction sSAPT0               -0.87535271 [mEh]      -0.54929212 [kcal/mol]      -2.29823822 [kJ/mol]
    Dispersion sSAPT0              -5.78128724 [mEh]      -3.62781252 [kcal/mol]     -15.17876756 [kJ/mol]
  Total sSAPT0                     -3.59798961 [mEh]      -2.25777256 [kcal/mol]      -9.44652041 [kJ/mol]
  --------------------------------------------------------------------------------------------------------

*** Psi4 exiting successfully. Buy a developer a beer!
