                               Psi4 1.9 release

  ==> Input File <==

--------------------------------------------------------------------------
MEMORY 10 GB

molecule dimer {
0 1
C    1.242974   0.963501   0.558721
C    1.813895  -0.340386   0.063845
O    3.048254  -0.187680  -0.597193
H    3.649395   0.273686  -0.007058
H    0.278590   0.794505   1.043230
H    1.106081   1.663438  -0.268973
H    1.911902   1.430034   1.288355
H    1.139457  -0.793144  -0.670115
H    1.897200  -1.054353   0.897374
--
0 1
C   -2.644823   0.871588  -0.239888
C   -1.913498  -0.407792  -0.532074
O   -1.524869  -0.977671   0.699889
H   -1.074034  -1.808472   0.534087
H   -2.974709   1.350078  -1.163169
H   -1.996852   1.568001   0.296414
H   -3.520111   0.676993   0.382312
H   -1.034795  -0.203787  -1.163463
H   -2.560496  -1.095638  -1.094179

units ang
no_reorient
no_com
symmetry c1
}

set {
basis        aug-cc-pVTZ
scf_type     df
}

energy("sapt2+")
--------------------------------------------------------------------------

  //              Dimer HF             //
    Molecular point group: c1
  Charge       = 0
  Multiplicity = 1
  Basis Set: AUG-CC-PVTZ
    Blend: AUG-CC-PVTZ
  Basis Set: (AUG-CC-PVTZ AUX)
    Blend: AUG-CC-PVTZ-JKFIT
  @DF-RHF Final Energy:  -308.28832823404895
    Total Energy =                       -308.2883282340489473
 Dipole X            :         -0.1757846           -0.0000076           -0.1757922
 Dipole Y            :         -0.0040507           -0.0000019           -0.0040526
 Dipole Z            :          0.0765790            0.0000132            0.0765922
 Magnitude           :                                                    0.1917959
  //            Monomer A HF           //
    Molecular point group: c1
  Multiplicity = 1
  Basis Set: AUG-CC-PVTZ
    Blend: AUG-CC-PVTZ
  Basis Set: (AUG-CC-PVTZ AUX)
    Blend: AUG-CC-PVTZ-JKFIT
  @DF-RHF Final Energy:  -154.14501232709407
    Total Energy =                       -154.1450123270940651
  //            Monomer B HF           //
    Molecular point group: c1

    Geometry (in Angstrom), charge = 0, multiplicity = 1:

       Center              X                  Y                   Z               Mass
    ------------   -----------------  -----------------  -----------------  -----------------
      Gh(C)           1.242974000000     0.963501000000     0.558721000000    12.000000000000
      Gh(C)           1.813895000000    -0.340386000000     0.063845000000    12.000000000000
      Gh(O)           3.048254000000    -0.187680000000    -0.597193000000    15.994914619570
      Gh(H)           3.649395000000     0.273686000000    -0.007058000000     1.007825032230
      Gh(H)           0.278590000000     0.794505000000     1.043230000000     1.007825032230
      Gh(H)           1.106081000000     1.663438000000    -0.268973000000     1.007825032230
      Gh(H)           1.911902000000     1.430034000000     1.288355000000     1.007825032230
      Gh(H)           1.139457000000    -0.793144000000    -0.670115000000     1.007825032230
      Gh(H)           1.897200000000    -1.054353000000     0.897374000000     1.007825032230
         C           -2.644823000000     0.871588000000    -0.239888000000    12.000000000000
         C           -1.913498000000    -0.407792000000    -0.532074000000    12.000000000000
         O           -1.524869000000    -0.977671000000     0.699889000000    15.994914619570
         H           -1.074034000000    -1.808472000000     0.534087000000     1.007825032230
         H           -2.974709000000     1.350078000000    -1.163169000000     1.007825032230
         H           -1.996852000000     1.568001000000     0.296414000000     1.007825032230
         H           -3.520111000000     0.676993000000     0.382312000000     1.007825032230
         H           -1.034795000000    -0.203787000000    -1.163463000000     1.007825032230
         H           -2.560496000000    -1.095638000000    -1.094179000000     1.007825032230

  Charge       = 0
  Multiplicity = 1
  Basis Set: AUG-CC-PVTZ
    Blend: AUG-CC-PVTZ
  Basis Set: (AUG-CC-PVTZ AUX)
    Blend: AUG-CC-PVTZ-JKFIT

    Orbital Energies [Eh]
    ---------------------

    Doubly Occupied:

       1A    -20.555771     2A    -11.273820     3A    -11.210771
       4A     -1.361534     5A     -1.014077     6A     -0.833184
       7A     -0.703172     8A     -0.645466     9A     -0.573816
      10A     -0.533537    11A     -0.524310    12A     -0.489187
      13A     -0.440025

  @DF-RHF Final Energy:  -154.14564331225927

   => Energetics <=

    Nuclear Repulsion Energy =             82.2495554732964678
    One-Electron Energy =                -372.4730535102029307
    Two-Electron Energy =                 136.0778547246471817
    Total Energy =                       -154.1456433122592671
 Dipole X            :         99.7093404          -99.6072279            0.1021125
 Dipole Y            :          8.3480256           -8.6009316           -0.2529060
 Dipole Z            :          1.7460028           -2.3445038           -0.5985011
 Magnitude           :                                                    0.6577172

    SAPT Results
  --------------------------------------------------------------------------------------------------------
    Electrostatics                 -3.44045473 [mEh]      -2.15891794 [kcal/mol]      -9.03291264 [kJ/mol]
      Elst10,r                     -3.02136202 [mEh]      -1.89593329 [kcal/mol]      -7.93258490 [kJ/mol]
      Elst12,r                     -0.41909271 [mEh]      -0.26298464 [kcal/mol]      -1.10032775 [kJ/mol]

    Exchange                        7.09950857 [mEh]       4.45500888 [kcal/mol]      18.63975717 [kJ/mol]
      Exch10                        6.21250508 [mEh]       3.89840579 [kcal/mol]      16.31092984 [kJ/mol]
      Exch10(S^2)                   6.19542504 [mEh]       3.88768790 [kcal/mol]      16.26608619 [kJ/mol]
      Exch11(S^2)                   0.09014257 [mEh]       0.05656532 [kcal/mol]       0.23666929 [kJ/mol]
      Exch12(S^2)                   0.79686091 [mEh]       0.50003777 [kcal/mol]       2.09215804 [kJ/mol]

    Induction                      -0.92607301 [mEh]      -0.58111959 [kcal/mol]      -2.43140436 [kJ/mol]
      Ind20,r                      -1.53799834 [mEh]      -0.96510853 [kcal/mol]      -4.03801409 [kJ/mol]
      Ind22                        -0.23200586 [mEh]      -0.14558587 [kcal/mol]      -0.60913130 [kJ/mol]
      Exch-Ind20,r                  1.12476945 [mEh]       0.70580348 [kcal/mol]       2.95308178 [kJ/mol]
      Exch-Ind22                    0.16967060 [mEh]       0.10646991 [kcal/mol]       0.44547010 [kJ/mol]
      delta HF,r (2)               -0.45050886 [mEh]      -0.28269858 [kcal/mol]      -1.18281084 [kJ/mol]

    Dispersion                     -6.37641231 [mEh]      -4.00125913 [kcal/mol]     -16.74126820 [kJ/mol]
      Disp20                       -6.47001016 [mEh]      -4.05999267 [kcal/mol]     -16.98700932 [kJ/mol]
      Disp21                        0.27097537 [mEh]       0.17003961 [kcal/mol]       0.71144573 [kJ/mol]
      Disp22 (SDQ)                  0.17215381 [mEh]       0.10802815 [kcal/mol]       0.45198976 [kJ/mol]
      Disp22 (T)                   -0.91123136 [mEh]      -0.57180631 [kcal/mol]      -2.39243760 [kJ/mol]
      Est. Disp22 (T)              -1.01700182 [mEh]      -0.63817827 [kcal/mol]      -2.67013790 [kJ/mol]
      Exch-Disp20                   0.66747049 [mEh]       0.41884406 [kcal/mol]       1.75244353 [kJ/mol]

  Total HF                          2.32740530 [mEh]       1.46046888 [kcal/mol]       6.11060178 [kJ/mol]
  Total SAPT0                      -3.47513436 [mEh]      -2.18067973 [kcal/mol]      -9.12396401 [kJ/mol]
  Total SAPT2                      -3.06955884 [mEh]      -1.92617725 [kcal/mol]      -8.05912562 [kJ/mol]
  Total SAPT2+                     -3.64343148 [mEh]      -2.28628777 [kcal/mol]      -9.56582803 [kJ/mol]

  Special recipe for scaled SAPT0 (see Manual):
    Electrostatics sSAPT0          -3.02136202 [mEh]      -1.89593329 [kcal/mol]      -7.93258490 [kJ/mol]
    Exchange sSAPT0                 6.21250508 [mEh]       3.89840579 [kcal/mol]      16.31092984 [kJ/mol]
    Induction sSAPT0               -0.85440952 [mEh]      -0.53615007 [kcal/mol]      -2.24325189 [kJ/mol]
    Dispersion sSAPT0              -5.79700402 [mEh]      -3.63767494 [kcal/mol]     -15.22003197 [kJ/mol]
  Total sSAPT0                     -3.46027049 [mEh]      -2.17135251 [kcal/mol]      -9.08493891 [kJ/mol]
  --------------------------------------------------------------------------------------------------------

*** Psi4 exiting successfully. Buy a developer a beer!
