                               Psi4 1.9 release

  ==> Input File <==

--------------------------------------------------------------------------
MEMORY 10 GB

molecule dimer {
0 1
C    3.029986   0.386750  -0.297289
C    1.565630   0.042439  -0.343416
O    1.054760  -0.298721   0.935189
H    1.600391  -0.997930   1.306596
H    3.392495   0.683308  -1.283110
H    3.623536  -0.473268   0.026689
H    3.211994   1.206803   0.399565
H    1.373321  -0.767819  -1.059610
H    0.975226   0.901777  -0.673560
--
0 1
C   -2.339283   1.016978   0.390899
C   -2.013114  -0.031171  -0.645695
O   -1.483940  -1.201848  -0.081782
H   -0.699556  -0.953916   0.431255
H   -2.777295   1.906617  -0.067586
H   -1.436124   1.322929   0.927170
H   -3.045323   0.621481   1.123823
H   -1.327143   0.391231  -1.399248
H   -2.917394  -0.326625  -1.186236

units ang
no_reorient
no_com
symmetry c1
}

set {
basis        aug-cc-pVTZ
scf_type     df
}

energy("sapt2+")
--------------------------------------------------------------------------

  //              Dimer HF             //
    Molecular point group: c1
  Charge       = 0
  Multiplicity = 1
  Basis Set: AUG-CC-PVTZ
    Blend: AUG-CC-PVTZ
  Basis Set: (AUG-CC-PVTZ AUX)
    Blend: AUG-CC-PVTZ-JKFIT
  @DF-RHF Final Energy:  -308.29302710036762
    Total Energy =                       -308.2930271003676239
 Dipole X            :          1.0991042            0.0000038            1.0991079
 Dipole Y            :          0.4132585            0.0000227            0.4132812
 Dipole Z            :         -0.1696916           -0.0000038           -0.1696954
 Magnitude           :                                                    1.1864384
  //            Monomer A HF           //
    Molecular point group: c1
  Multiplicity = 1
  Basis Set: AUG-CC-PVTZ
    Blend: AUG-CC-PVTZ
  Basis Set: (AUG-CC-PVTZ AUX)
    Blend: AUG-CC-PVTZ-JKFIT
  @DF-RHF Final Energy:  -154.14499995901880
    Total Energy =                       -154.1449999590188042
  //            Monomer B HF           //
    Molecular point group: c1

    Geometry (in Angstrom), charge = 0, multiplicity = 1:

       Center              X                  Y                   Z               Mass
    ------------   -----------------  -----------------  -----------------  -----------------
      Gh(C)           3.029986000000     0.386750000000    -0.297289000000    12.000000000000
      Gh(C)           1.565630000000     0.042439000000    -0.343416000000    12.000000000000
      Gh(O)           1.054760000000    -0.298721000000     0.935189000000    15.994914619570
      Gh(H)           1.600391000000    -0.997930000000     1.306596000000     1.007825032230
      Gh(H)           3.392495000000     0.683308000000    -1.283110000000     1.007825032230
      Gh(H)           3.623536000000    -0.473268000000     0.026689000000     1.007825032230
      Gh(H)           3.211994000000     1.206803000000     0.399565000000     1.007825032230
      Gh(H)           1.373321000000    -0.767819000000    -1.059610000000     1.007825032230
      Gh(H)           0.975226000000     0.901777000000    -0.673560000000     1.007825032230
         C           -2.339283000000     1.016978000000     0.390899000000    12.000000000000
         C           -2.013114000000    -0.031171000000    -0.645695000000    12.000000000000
         O           -1.483940000000    -1.201848000000    -0.081782000000    15.994914619570
         H           -0.699556000000    -0.953916000000     0.431255000000     1.007825032230
         H           -2.777295000000     1.906617000000    -0.067586000000     1.007825032230
         H           -1.436124000000     1.322929000000     0.927170000000     1.007825032230
         H           -3.045323000000     0.621481000000     1.123823000000     1.007825032230
         H           -1.327143000000     0.391231000000    -1.399248000000     1.007825032230
         H           -2.917394000000    -0.326625000000    -1.186236000000     1.007825032230

  Charge       = 0
  Multiplicity = 1
  Basis Set: AUG-CC-PVTZ
    Blend: AUG-CC-PVTZ
  Basis Set: (AUG-CC-PVTZ AUX)
    Blend: AUG-CC-PVTZ-JKFIT

    Orbital Energies [Eh]
    ---------------------

    Doubly Occupied:

       1A    -20.557288     2A    -11.273344     3A    -11.218287
       4A     -1.363584     5A     -1.013313     6A     -0.847606
       7A     -0.686868     8A     -0.627318     9A     -0.612134
      10A     -0.543963    11A     -0.527675    12A     -0.480391
      13A     -0.441515

  @DF-RHF Final Energy:  -154.14458960386401

   => Energetics <=

    Nuclear Repulsion Energy =             82.2031101988063710
    One-Electron Energy =                -372.3088244182061999
    Two-Electron Energy =                 135.9611246155358231
    Total Energy =                       -154.1445896038640058
 Dipole X            :         95.0599469          -94.8429675            0.2169794
 Dipole Y            :          2.0624137           -1.3950431            0.6673706
 Dipole Z            :          4.5423876           -4.4481394            0.0942482
 Magnitude           :                                                    0.7080581

    SAPT Results
  --------------------------------------------------------------------------------------------------------
    Electrostatics                -14.70654927 [mEh]      -9.22849900 [kcal/mol]     -38.61203980 [kJ/mol]
      Elst10,r                    -14.10836930 [mEh]      -8.85313539 [kcal/mol]     -37.04151848 [kJ/mol]
      Elst12,r                     -0.59817998 [mEh]      -0.37536360 [kcal/mol]      -1.57052132 [kJ/mol]

    Exchange                       17.81157097 [mEh]      11.17692953 [kcal/mol]      46.76427314 [kJ/mol]
      Exch10                       15.04421571 [mEh]       9.44038788 [kcal/mol]      39.49858290 [kJ/mol]
      Exch10(S^2)                  14.93780523 [mEh]       9.37361430 [kcal/mol]      39.21920223 [kJ/mol]
      Exch11(S^2)                   0.14766908 [mEh]       0.09266375 [kcal/mol]       0.38770512 [kJ/mol]
      Exch12(S^2)                   2.61968618 [mEh]       1.64387790 [kcal/mol]       6.87798512 [kJ/mol]

    Induction                      -4.86458542 [mEh]      -3.05257343 [kcal/mol]     -12.77196725 [kJ/mol]
      Ind20,r                      -6.41785654 [mEh]      -4.02726578 [kcal/mol]     -16.85008003 [kJ/mol]
      Ind22                        -1.24644072 [mEh]      -0.78215336 [kcal/mol]      -3.27252966 [kJ/mol]
      Exch-Ind20,r                  3.88868621 [mEh]       2.44018744 [kcal/mol]      10.20974424 [kJ/mol]
      Exch-Ind22                    0.75523920 [mEh]       0.47391975 [kcal/mol]       1.98288025 [kJ/mol]
      delta HF,r (2)               -1.84421356 [mEh]      -1.15726148 [kcal/mol]      -4.84198205 [kJ/mol]

    Dispersion                     -8.52810023 [mEh]      -5.35146369 [kcal/mol]     -22.39052406 [kJ/mol]
      Disp20                       -8.70857168 [mEh]      -5.46471123 [kcal/mol]     -22.86435179 [kJ/mol]
      Disp21                        0.49960740 [mEh]       0.31350838 [kcal/mol]       1.31171905 [kJ/mol]
      Disp22 (SDQ)                 -0.06906009 [mEh]      -0.04333586 [kcal/mol]      -0.18131725 [kJ/mol]
      Disp22 (T)                   -1.32639666 [mEh]      -0.83232647 [kcal/mol]      -3.48245396 [kJ/mol]
      Est. Disp22 (T)              -1.49994063 [mEh]      -0.94122695 [kcal/mol]      -3.93809357 [kJ/mol]
      Exch-Disp20                   1.24986477 [mEh]       0.78430198 [kcal/mol]       3.28151950 [kJ/mol]

  Total HF                         -3.43753748 [mEh]      -2.15708734 [kcal/mol]      -9.02525342 [kJ/mol]
  Total SAPT0                     -10.89624439 [mEh]      -6.83749658 [kcal/mol]     -28.60808571 [kJ/mol]
  Total SAPT2                      -9.21827063 [mEh]      -5.78455215 [kcal/mol]     -24.20256620 [kJ/mol]
  Total SAPT2+                    -10.28766395 [mEh]      -6.45560659 [kcal/mol]     -27.01025797 [kJ/mol]

  Special recipe for scaled SAPT0 (see Manual):
    Electrostatics sSAPT0         -14.10836930 [mEh]      -8.85313539 [kcal/mol]     -37.04151848 [kJ/mol]
    Exchange sSAPT0                15.04421571 [mEh]       9.44038788 [kcal/mol]      39.49858290 [kJ/mol]
    Induction sSAPT0               -4.28968653 [mEh]      -2.69181894 [kcal/mol]     -11.26257043 [kJ/mol]
    Dispersion sSAPT0              -7.43180569 [mEh]      -4.66352848 [kcal/mol]     -19.51220315 [kJ/mol]
  Total sSAPT0                    -10.78564581 [mEh]      -6.76809493 [kcal/mol]     -28.31770917 [kJ/mol]
  --------------------------------------------------------------------------------------------------------

*** Psi4 exiting successfully. Buy a developer a beer!
