                               Psi4 1.9 release

  ==> Input File <==

--------------------------------------------------------------------------
MEMORY 10 GB

molecule dimer {
0 1
C    2.584823   0.580861  -0.414759
C    1.760466  -0.661007  -0.173359
O    0.998046  -0.577244   1.001583
H    0.375593   0.156131   0.879066
H    3.189531   0.489143  -1.319989
H    3.250277   0.766859   0.430319
H    1.937739   1.455965  -0.526514
H    2.409824  -1.534677  -0.065270
H    1.117876  -0.858158  -1.048615
--
0 1
C   -2.057266  -0.936950  -0.531782
C   -2.184932   0.344508   0.249614
O   -1.064190   1.198352   0.077039
H   -0.954906   1.372540  -0.862252
H   -2.929025  -1.575620  -0.377756
H   -1.165835  -1.484887  -0.218990
H   -1.982100  -0.734326  -1.604803
H   -2.230479   0.136995   1.321525
H   -3.107893   0.876704  -0.013975

units ang
no_reorient
no_com
symmetry c1
}

set {
basis        aug-cc-pVTZ
scf_type     df
}

energy("sapt2+")
--------------------------------------------------------------------------

  //              Dimer HF             //
    Molecular point group: c1
  Charge       = 0
  Multiplicity = 1
  Basis Set: AUG-CC-PVTZ
    Blend: AUG-CC-PVTZ
  Basis Set: (AUG-CC-PVTZ AUX)
    Blend: AUG-CC-PVTZ-JKFIT
  @DF-RHF Final Energy:  -308.29248357966173
    Total Energy =                       -308.2924835796617344
 Dipole X            :         -0.6461221           -0.0000076           -0.6461296
 Dipole Y            :          0.1645046            0.0000094            0.1645140
 Dipole Z            :         -1.0216642            0.0000113           -1.0216529
 Magnitude           :                                                    1.2199684
  //            Monomer A HF           //
    Molecular point group: c1
  Multiplicity = 1
  Basis Set: AUG-CC-PVTZ
    Blend: AUG-CC-PVTZ
  Basis Set: (AUG-CC-PVTZ AUX)
    Blend: AUG-CC-PVTZ-JKFIT
  @DF-RHF Final Energy:  -154.14445832483196
    Total Energy =                       -154.1444583248319589
  //            Monomer B HF           //
    Molecular point group: c1

    Geometry (in Angstrom), charge = 0, multiplicity = 1:

       Center              X                  Y                   Z               Mass
    ------------   -----------------  -----------------  -----------------  -----------------
      Gh(C)           2.584823000000     0.580861000000    -0.414759000000    12.000000000000
      Gh(C)           1.760466000000    -0.661007000000    -0.173359000000    12.000000000000
      Gh(O)           0.998046000000    -0.577244000000     1.001583000000    15.994914619570
      Gh(H)           0.375593000000     0.156131000000     0.879066000000     1.007825032230
      Gh(H)           3.189531000000     0.489143000000    -1.319989000000     1.007825032230
      Gh(H)           3.250277000000     0.766859000000     0.430319000000     1.007825032230
      Gh(H)           1.937739000000     1.455965000000    -0.526514000000     1.007825032230
      Gh(H)           2.409824000000    -1.534677000000    -0.065270000000     1.007825032230
      Gh(H)           1.117876000000    -0.858158000000    -1.048615000000     1.007825032230
         C           -2.057266000000    -0.936950000000    -0.531782000000    12.000000000000
         C           -2.184932000000     0.344508000000     0.249614000000    12.000000000000
         O           -1.064190000000     1.198352000000     0.077039000000    15.994914619570
         H           -0.954906000000     1.372540000000    -0.862252000000     1.007825032230
         H           -2.929025000000    -1.575620000000    -0.377756000000     1.007825032230
         H           -1.165835000000    -1.484887000000    -0.218990000000     1.007825032230
         H           -1.982100000000    -0.734326000000    -1.604803000000     1.007825032230
         H           -2.230479000000     0.136995000000     1.321525000000     1.007825032230
         H           -3.107893000000     0.876704000000    -0.013975000000     1.007825032230

  Charge       = 0
  Multiplicity = 1
  Basis Set: AUG-CC-PVTZ
    Blend: AUG-CC-PVTZ
  Basis Set: (AUG-CC-PVTZ AUX)
    Blend: AUG-CC-PVTZ-JKFIT

    Orbital Energies [Eh]
    ---------------------

    Doubly Occupied:

       1A    -20.554443     2A    -11.273769     3A    -11.219090
       4A     -1.357840     5A     -1.015392     6A     -0.848227
       7A     -0.684774     8A     -0.624224     9A     -0.612183
      10A     -0.544204    11A     -0.525341    12A     -0.481974
      13A     -0.443607

  @DF-RHF Final Energy:  -154.14503956964512

   => Energetics <=

    Nuclear Repulsion Energy =             82.0091017138692280
    One-Electron Energy =                -371.9381430745959847
    Two-Electron Energy =                 135.7840017910816073
    Total Energy =                       -154.1450395696451210
 Dipole X            :         87.1439510          -87.5641374           -0.4201865
 Dipole Y            :         -9.0537805            8.7372810           -0.3164995
 Dipole Z            :          4.8577649           -5.3534940           -0.4957290
 Magnitude           :                                                    0.7228249

    SAPT Results
  --------------------------------------------------------------------------------------------------------
    Electrostatics                -15.86935681 [mEh]      -9.95817174 [kcal/mol]     -41.66499055 [kJ/mol]
      Elst10,r                    -14.97801222 [mEh]      -9.39884457 [kcal/mol]     -39.32476567 [kJ/mol]
      Elst12,r                     -0.89134459 [mEh]      -0.55932717 [kcal/mol]      -2.34022489 [kJ/mol]

    Exchange                       19.59952547 [mEh]      12.29888792 [kcal/mol]      51.45854704 [kJ/mol]
      Exch10                       16.46757315 [mEh]      10.33355816 [kcal/mol]      43.23560736 [kJ/mol]
      Exch10(S^2)                  16.34943944 [mEh]      10.25942814 [kcal/mol]      42.92544734 [kJ/mol]
      Exch11(S^2)                   0.16447035 [mEh]       0.10320670 [kcal/mol]       0.43181685 [kJ/mol]
      Exch12(S^2)                   2.96748197 [mEh]       1.86212305 [kcal/mol]       7.79112284 [kJ/mol]

    Induction                      -5.00372104 [mEh]      -3.13988236 [kcal/mol]     -13.13726779 [kJ/mol]
      Ind20,r                      -7.21965664 [mEh]      -4.53040294 [kcal/mol]     -18.95520589 [kJ/mol]
      Ind22                        -1.47730880 [mEh]      -0.92702527 [kcal/mol]      -3.87867372 [kJ/mol]
      Exch-Ind20,r                  4.63698231 [mEh]       2.90975033 [kcal/mol]      12.17439537 [kJ/mol]
      Exch-Ind22                    0.94883387 [mEh]       0.59540224 [kcal/mol]       2.49116299 [kJ/mol]
      delta HF,r (2)               -1.89257179 [mEh]      -1.18760673 [kcal/mol]      -4.96894654 [kJ/mol]

    Dispersion                     -9.46255152 [mEh]      -5.93784072 [kcal/mol]     -24.84392558 [kJ/mol]
      Disp20                       -9.73737993 [mEh]      -6.11029816 [kcal/mol]     -25.56548748 [kJ/mol]
      Disp21                        0.60537732 [mEh]       0.37988001 [kcal/mol]       1.58941795 [kJ/mol]
      Disp22 (SDQ)                 -0.10119110 [mEh]      -0.06349837 [kcal/mol]      -0.26567719 [kJ/mol]
      Disp22 (T)                   -1.49385689 [mEh]      -0.93740935 [kcal/mol]      -3.92212072 [kJ/mol]
      Est. Disp22 (T)              -1.69455699 [mEh]      -1.06335056 [kcal/mol]      -4.44905875 [kJ/mol]
      Exch-Disp20                   1.46519917 [mEh]       0.91942636 [kcal/mol]       3.84687990 [kJ/mol]

  Total HF                         -2.98568518 [mEh]      -1.87354574 [kcal/mol]      -7.83891537 [kJ/mol]
  Total SAPT0                     -11.25786594 [mEh]      -7.06441753 [kcal/mol]     -29.55752296 [kJ/mol]
  Total SAPT2                      -9.54573313 [mEh]      -5.99003798 [kcal/mol]     -25.06231889 [kJ/mol]
  Total SAPT2+                    -10.73610389 [mEh]      -6.73700690 [kcal/mol]     -28.18763689 [kJ/mol]

  Special recipe for scaled SAPT0 (see Manual):
    Electrostatics sSAPT0         -14.97801222 [mEh]      -9.39884457 [kcal/mol]     -39.32476567 [kJ/mol]
    Exchange sSAPT0                16.46757315 [mEh]      10.33355816 [kcal/mol]      43.23560736 [kJ/mol]
    Induction sSAPT0               -4.37400384 [mEh]      -2.74472885 [kcal/mol]     -11.48394549 [kJ/mol]
    Dispersion sSAPT0              -8.24019010 [mEh]      -5.17079735 [kcal/mol]     -21.63461613 [kJ/mol]
  Total sSAPT0                    -11.12463301 [mEh]      -6.98081260 [kcal/mol]     -29.20771993 [kJ/mol]
  --------------------------------------------------------------------------------------------------------

*** Psi4 exiting successfully. Buy a developer a beer!
