                               Psi4 1.9.1 release

  ==> Input File <==

--------------------------------------------------------------------------
MEMORY 10 GB

molecule dimer {
0 1
C    1.516213   0.417723   0.442144
C    2.871854  -0.240916   0.502599
O    3.467762  -0.364839  -0.767183
H    3.553027   0.512554  -1.148413
H    1.054212   0.467584   1.430942
H    0.850827  -0.136694  -0.223863
H    1.596600   1.441461   0.062946
H    2.783288  -1.258406   0.891720
H    3.528345   0.304796   1.195929
--
0 1
C   -2.160843   1.157699  -0.183492
C   -2.171092  -0.335092   0.031517
O   -3.472656  -0.871194   0.050728
H   -3.902426  -0.651722  -0.779695
H   -1.142870   1.552980  -0.150083
H   -2.753797   1.659870   0.583223
H   -2.583803   1.414199  -1.159463
H   -1.730863  -0.583014   1.001293
H   -1.550170  -0.831830  -0.729495

units ang
no_reorient
no_com
symmetry c1
}

set {
basis        aug-cc-pVTZ
scf_type     df
}

energy("sapt2+")
--------------------------------------------------------------------------

  //              Dimer HF             //
    Molecular point group: c1
  Charge       = 0
  Multiplicity = 1
  Basis Set: AUG-CC-PVTZ
    Blend: AUG-CC-PVTZ
  Basis Set: (AUG-CC-PVTZ AUX)
    Blend: AUG-CC-PVTZ-JKFIT
  @DF-RHF Final Energy:  -308.28865215285498
    Total Energy =                       -308.2886521528549792
 Dipole X            :          0.0747862            0.0000189            0.0748051
 Dipole Y            :          0.9722180           -0.0000038            0.9722143
 Dipole Z            :         -0.1782142            0.0000170           -0.1781972
 Magnitude           :                                                    0.9912369
  //            Monomer A HF           //
    Molecular point group: c1
  Multiplicity = 1
  Basis Set: AUG-CC-PVTZ
    Blend: AUG-CC-PVTZ
  Basis Set: (AUG-CC-PVTZ AUX)
    Blend: AUG-CC-PVTZ-JKFIT
  @DF-RHF Final Energy:  -154.14513537548339
    Total Energy =                       -154.1451353754833917
  //            Monomer B HF           //
    Molecular point group: c1

    Geometry (in Angstrom), charge = 0, multiplicity = 1:

       Center              X                  Y                   Z               Mass
    ------------   -----------------  -----------------  -----------------  -----------------
      Gh(C)           1.516213000000     0.417723000000     0.442144000000    12.000000000000
      Gh(C)           2.871854000000    -0.240916000000     0.502599000000    12.000000000000
      Gh(O)           3.467762000000    -0.364839000000    -0.767183000000    15.994914619570
      Gh(H)           3.553027000000     0.512554000000    -1.148413000000     1.007825032230
      Gh(H)           1.054212000000     0.467584000000     1.430942000000     1.007825032230
      Gh(H)           0.850827000000    -0.136694000000    -0.223863000000     1.007825032230
      Gh(H)           1.596600000000     1.441461000000     0.062946000000     1.007825032230
      Gh(H)           2.783288000000    -1.258406000000     0.891720000000     1.007825032230
      Gh(H)           3.528345000000     0.304796000000     1.195929000000     1.007825032230
         C           -2.160843000000     1.157699000000    -0.183492000000    12.000000000000
         C           -2.171092000000    -0.335092000000     0.031517000000    12.000000000000
         O           -3.472656000000    -0.871194000000     0.050728000000    15.994914619570
         H           -3.902426000000    -0.651722000000    -0.779695000000     1.007825032230
         H           -1.142870000000     1.552980000000    -0.150083000000     1.007825032230
         H           -2.753797000000     1.659870000000     0.583223000000     1.007825032230
         H           -2.583803000000     1.414199000000    -1.159463000000     1.007825032230
         H           -1.730863000000    -0.583014000000     1.001293000000     1.007825032230
         H           -1.550170000000    -0.831830000000    -0.729495000000     1.007825032230

  Charge       = 0
  Multiplicity = 1
  Basis Set: AUG-CC-PVTZ
    Blend: AUG-CC-PVTZ
  Basis Set: (AUG-CC-PVTZ AUX)
    Blend: AUG-CC-PVTZ-JKFIT

    Orbital Energies [Eh]
    ---------------------

    Doubly Occupied:

       1A    -20.555758     2A    -11.273367     3A    -11.218198
       4A     -1.363117     5A     -1.014295     6A     -0.848441
       7A     -0.687823     8A     -0.626290     9A     -0.611857
      10A     -0.544403    11A     -0.526573    12A     -0.480640
      13A     -0.442675

  @DF-RHF Final Energy:  -154.14511953004524

   => Energetics <=

    Nuclear Repulsion Energy =             82.1723368767693216
    One-Electron Energy =                -372.2480351627118580
    Two-Electron Energy =                 135.9305787558972725
    Total Energy =                       -154.1451195300452355
 Dipole X            :        127.7398692         -127.4370582            0.3028110
 Dipole Y            :         -0.5906650            0.9950788            0.4044137
 Dipole Z            :          2.7923991           -3.2885883           -0.4961892
 Magnitude           :                                                    0.7081304

    SAPT Results
  --------------------------------------------------------------------------------------------------------
    Electrostatics                 -0.81666656 [mEh]      -0.51246600 [kcal/mol]      -2.14415775 [kJ/mol]
      Elst10,r                     -0.65118015 [mEh]      -0.40862171 [kcal/mol]      -1.70967325 [kJ/mol]
      Elst12,r                     -0.16548641 [mEh]      -0.10384429 [kcal/mol]      -0.43448450 [kJ/mol]

    Exchange                        2.73146550 [mEh]       1.71402048 [kcal/mol]       7.17146169 [kJ/mol]
      Exch10                        2.47077873 [mEh]       1.55043706 [kcal/mol]       6.48702866 [kJ/mol]
      Exch10(S^2)                   2.46701111 [mEh]       1.54807284 [kcal/mol]       6.47713677 [kJ/mol]
      Exch11(S^2)                   0.07383027 [mEh]       0.04632920 [kcal/mol]       0.19384136 [kJ/mol]
      Exch12(S^2)                   0.18685650 [mEh]       0.11725422 [kcal/mol]       0.49059167 [kJ/mol]

    Induction                      -0.22422878 [mEh]      -0.14070568 [kcal/mol]      -0.58871258 [kJ/mol]
      Ind20,r                      -0.43409405 [mEh]      -0.27239813 [kcal/mol]      -1.13971376 [kJ/mol]
      Ind22                        -0.05447015 [mEh]      -0.03418054 [kcal/mol]      -0.14301137 [kJ/mol]
      Exch-Ind20,r                  0.37525703 [mEh]       0.23547734 [kcal/mol]       0.98523720 [kJ/mol]
      Exch-Ind22                    0.04708728 [mEh]       0.02954771 [kcal/mol]       0.12362764 [kJ/mol]
      delta HF,r (2)               -0.15800889 [mEh]      -0.09915208 [kcal/mol]      -0.41485229 [kJ/mol]

    Dispersion                     -3.27595272 [mEh]      -2.05569137 [kcal/mol]      -8.60101267 [kJ/mol]
      Disp20                       -3.25084508 [mEh]      -2.03993608 [kcal/mol]      -8.53509257 [kJ/mol]
      Disp21                        0.01640071 [mEh]       0.01029160 [kcal/mol]       0.04306005 [kJ/mol]
      Disp22 (SDQ)                  0.17352973 [mEh]       0.10889155 [kcal/mol]       0.45560225 [kJ/mol]
      Disp22 (T)                   -0.43377684 [mEh]      -0.27219908 [kcal/mol]      -1.13888093 [kJ/mol]
      Est. Disp22 (T)              -0.48742360 [mEh]      -0.30586293 [kcal/mol]      -1.27973049 [kJ/mol]
      Exch-Disp20                   0.27238552 [mEh]       0.17092450 [kcal/mol]       0.71514809 [kJ/mol]

  Total HF                          1.60275267 [mEh]       1.00574249 [kcal/mol]       4.20802656 [kJ/mol]
  Total SAPT0                      -1.37570688 [mEh]      -0.86326910 [kcal/mol]      -3.61191791 [kJ/mol]
  Total SAPT2                      -1.28788939 [mEh]      -0.80816279 [kcal/mol]      -3.38135312 [kJ/mol]
  Total SAPT2+                     -1.58538255 [mEh]      -0.99484257 [kcal/mol]      -4.16242131 [kJ/mol]

  Special recipe for scaled SAPT0 (see Manual):
    Electrostatics sSAPT0          -0.65118015 [mEh]      -0.40862171 [kcal/mol]      -1.70967325 [kJ/mol]
    Exchange sSAPT0                 2.47077873 [mEh]       1.55043706 [kcal/mol]       6.48702866 [kJ/mol]
    Induction sSAPT0               -0.21512400 [mEh]      -0.13499235 [kcal/mol]      -0.56480798 [kJ/mol]
    Dispersion sSAPT0              -2.97720968 [mEh]      -1.86822728 [kcal/mol]      -7.81666295 [kJ/mol]
  Total sSAPT0                     -1.37273510 [mEh]      -0.86140428 [kcal/mol]      -3.60411552 [kJ/mol]
  --------------------------------------------------------------------------------------------------------

*** Psi4 exiting successfully. Buy a developer a beer!
