                               Psi4 1.9 release

  ==> Input File <==

--------------------------------------------------------------------------
MEMORY 10 GB

molecule dimer {
0 1
C    1.309013   1.134015  -0.188218
C    1.724146  -0.315014  -0.195909
O    3.069051  -0.501508   0.179173
H    3.209050  -0.059378   1.020349
H    0.271243   1.257351  -0.509886
H    1.953170   1.720116  -0.846698
H    1.388592   1.553026   0.820473
H    1.634571  -0.733745  -1.202623
H    1.051625  -0.905042   0.447878
--
0 1
C   -1.823592  -1.296449  -0.312637
C   -1.984814  -0.112096   0.605856
O   -2.156708   1.096874  -0.098750
H   -2.908238   1.000912  -0.689351
H   -1.633465  -2.212113   0.251297
H   -0.989131  -1.136448  -0.999502
H   -2.726588  -1.455432  -0.909543
H   -1.083812   0.024514   1.212183
H   -2.814275  -0.279428   1.307478

units ang
no_reorient
no_com
symmetry c1
}

set {
basis        aug-cc-pVTZ
scf_type     df
}

energy("sapt2+")
--------------------------------------------------------------------------

  //              Dimer HF             //
    Molecular point group: c1
  Charge       = 0
  Multiplicity = 1
  Basis Set: AUG-CC-PVTZ
    Blend: AUG-CC-PVTZ
  Basis Set: (AUG-CC-PVTZ AUX)
    Blend: AUG-CC-PVTZ-JKFIT
  @DF-RHF Final Energy:  -308.28727874467359
    Total Energy =                       -308.2872787446735856
 Dipole X            :         -0.9705931            0.0000076           -0.9705855
 Dipole Y            :         -0.1894458           -0.0000057           -0.1894515
 Dipole Z            :          0.2332392           -0.0000170            0.2332222
 Magnitude           :                                                    1.0160318
  //            Monomer A HF           //
    Molecular point group: c1
  Multiplicity = 1
  Basis Set: AUG-CC-PVTZ
    Blend: AUG-CC-PVTZ
  Basis Set: (AUG-CC-PVTZ AUX)
    Blend: AUG-CC-PVTZ-JKFIT
  @DF-RHF Final Energy:  -154.14494324654325
    Total Energy =                       -154.1449432465432494
  //            Monomer B HF           //
    Molecular point group: c1

    Geometry (in Angstrom), charge = 0, multiplicity = 1:

       Center              X                  Y                   Z               Mass
    ------------   -----------------  -----------------  -----------------  -----------------
      Gh(C)           1.309013000000     1.134015000000    -0.188218000000    12.000000000000
      Gh(C)           1.724146000000    -0.315014000000    -0.195909000000    12.000000000000
      Gh(O)           3.069051000000    -0.501508000000     0.179173000000    15.994914619570
      Gh(H)           3.209050000000    -0.059378000000     1.020349000000     1.007825032230
      Gh(H)           0.271243000000     1.257351000000    -0.509886000000     1.007825032230
      Gh(H)           1.953170000000     1.720116000000    -0.846698000000     1.007825032230
      Gh(H)           1.388592000000     1.553026000000     0.820473000000     1.007825032230
      Gh(H)           1.634571000000    -0.733745000000    -1.202623000000     1.007825032230
      Gh(H)           1.051625000000    -0.905042000000     0.447878000000     1.007825032230
         C           -1.823592000000    -1.296449000000    -0.312637000000    12.000000000000
         C           -1.984814000000    -0.112096000000     0.605856000000    12.000000000000
         O           -2.156708000000     1.096874000000    -0.098750000000    15.994914619570
         H           -2.908238000000     1.000912000000    -0.689351000000     1.007825032230
         H           -1.633465000000    -2.212113000000     0.251297000000     1.007825032230
         H           -0.989131000000    -1.136448000000    -0.999502000000     1.007825032230
         H           -2.726588000000    -1.455432000000    -0.909543000000     1.007825032230
         H           -1.083812000000     0.024514000000     1.212183000000     1.007825032230
         H           -2.814275000000    -0.279428000000     1.307478000000     1.007825032230

  Charge       = 0
  Multiplicity = 1
  Basis Set: AUG-CC-PVTZ
    Blend: AUG-CC-PVTZ
  Basis Set: (AUG-CC-PVTZ AUX)
    Blend: AUG-CC-PVTZ-JKFIT

    Orbital Energies [Eh]
    ---------------------

    Doubly Occupied:

       1A    -20.555367     2A    -11.273470     3A    -11.218543
       4A     -1.362112     5A     -1.014509     6A     -0.848721
       7A     -0.686663     8A     -0.625782     9A     -0.613236
      10A     -0.543292    11A     -0.526520    12A     -0.481021
      13A     -0.442979

  @DF-RHF Final Energy:  -154.14510853205030

   => Energetics <=

    Nuclear Repulsion Energy =             82.1639373999407070
    One-Electron Energy =                -372.2336547848087775
    Two-Electron Energy =                 135.9246088528177552
    Total Energy =                       -154.1451085320503012
 Dipole X            :         98.4011009          -98.7563484           -0.3552475
 Dipole Y            :          6.4446133           -7.0567532           -0.6121399
 Dipole Z            :         -2.2318332            2.1578329           -0.0740003
 Magnitude           :                                                    0.7116123

    SAPT Results
  --------------------------------------------------------------------------------------------------------
    Electrostatics                 -3.53687079 [mEh]      -2.21941993 [kcal/mol]      -9.28605298 [kJ/mol]
      Elst10,r                     -3.09958043 [mEh]      -1.94501609 [kcal/mol]      -8.13794730 [kJ/mol]
      Elst12,r                     -0.43729036 [mEh]      -0.27440384 [kcal/mol]      -1.14810567 [kJ/mol]

    Exchange                        7.66455917 [mEh]       4.80958349 [kcal/mol]      20.12329732 [kJ/mol]
      Exch10                        6.84212710 [mEh]       4.29349958 [kcal/mol]      17.96400224 [kJ/mol]
      Exch10(S^2)                   6.82364971 [mEh]       4.28190484 [kcal/mol]      17.91548984 [kJ/mol]
      Exch11(S^2)                   0.11607608 [mEh]       0.07283884 [kcal/mol]       0.30475770 [kJ/mol]
      Exch12(S^2)                   0.70635598 [mEh]       0.44324507 [kcal/mol]       1.85453738 [kJ/mol]

    Induction                      -1.02190202 [mEh]      -0.64125320 [kcal/mol]      -2.68300337 [kJ/mol]
      Ind20,r                      -1.77553407 [mEh]      -1.11416445 [kcal/mol]      -4.66166406 [kJ/mol]
      Ind22                        -0.20773973 [mEh]      -0.13035865 [kcal/mol]      -0.54542060 [kJ/mol]
      Exch-Ind20,r                  1.32776743 [mEh]       0.83318664 [kcal/mol]       3.48605291 [kJ/mol]
      Exch-Ind22                    0.15535047 [mEh]       0.09748389 [kcal/mol]       0.40787261 [kJ/mol]
      delta HF,r (2)               -0.52174612 [mEh]      -0.32740063 [kcal/mol]      -1.36984424 [kJ/mol]

    Dispersion                     -6.70867795 [mEh]      -4.20975897 [kcal/mol]     -17.61363153 [kJ/mol]
      Disp20                       -6.94647280 [mEh]      -4.35897749 [kcal/mol]     -18.23796183 [kJ/mol]
      Disp21                        0.32497651 [mEh]       0.20392584 [kcal/mol]       0.85322572 [kJ/mol]
      Disp22 (SDQ)                  0.22759220 [mEh]       0.14281626 [kcal/mol]       0.59754324 [kJ/mol]
      Disp22 (T)                   -0.93784073 [mEh]      -0.58850394 [kcal/mol]      -2.46230050 [kJ/mol]
      Est. Disp22 (T)              -1.05368270 [mEh]      -0.66119588 [kcal/mol]      -2.76644354 [kJ/mol]
      Exch-Disp20                   0.73890884 [mEh]       0.46367230 [kcal/mol]       1.94000488 [kJ/mol]

  Total HF                          2.77303392 [mEh]       1.74010506 [kcal/mol]       7.28059955 [kJ/mol]
  Total SAPT0                      -3.43453004 [mEh]      -2.15520014 [kcal/mol]      -9.01735739 [kJ/mol]
  Total SAPT2                      -3.10177760 [mEh]      -1.94639483 [kcal/mol]      -8.14371598 [kJ/mol]
  Total SAPT2+                     -3.60289159 [mEh]      -2.26084860 [kcal/mol]      -9.45939056 [kJ/mol]

  Special recipe for scaled SAPT0 (see Manual):
    Electrostatics sSAPT0          -3.09958043 [mEh]      -1.94501609 [kcal/mol]      -8.13794730 [kJ/mol]
    Exchange sSAPT0                 6.84212710 [mEh]       4.29349958 [kcal/mol]      17.96400224 [kJ/mol]
    Induction sSAPT0               -0.95869735 [mEh]      -0.60159167 [kcal/mol]      -2.51705954 [kJ/mol]
    Dispersion sSAPT0              -6.20154514 [mEh]      -3.89152833 [kcal/mol]     -16.28215453 [kJ/mol]
  Total sSAPT0                     -3.41769582 [mEh]      -2.14463650 [kcal/mol]      -8.97315913 [kJ/mol]
  --------------------------------------------------------------------------------------------------------

*** Psi4 exiting successfully. Buy a developer a beer!
