                               Psi4 1.9 release

  ==> Input File <==

--------------------------------------------------------------------------
MEMORY 10 GB

molecule dimer {
0 1
C   -2.349038  -1.157925   0.034796
C   -2.056539   0.254134   0.474099
O   -1.466127   1.027122  -0.547162
H   -2.044202   1.012050  -1.314173
H   -2.772715  -1.745591   0.851689
H   -1.437215  -1.650556  -0.309185
H   -3.070166  -1.168403  -0.788025
H   -1.338097   0.256338   1.299576
H   -2.969983   0.735774   0.851362
--
0 1
C    1.812643   1.175608   0.267567
C    1.500073  -0.258318  -0.073084
O    2.656582  -1.052379  -0.216325
H    3.191286  -0.947763   0.574607
H    0.896190   1.767216   0.310822
H    2.472721   1.612217  -0.484809
H    2.313676   1.247640   1.238406
H    0.969069  -0.311788  -1.026278
H    0.822962  -0.686080   0.683636

units ang
no_reorient
no_com
symmetry c1
}

set {
basis        aug-cc-pVTZ
scf_type     df
}

energy("sapt2+")
--------------------------------------------------------------------------

  //              Dimer HF             //
    Molecular point group: c1
  Charge       = 0
  Multiplicity = 1
  Basis Set: AUG-CC-PVTZ
    Blend: AUG-CC-PVTZ
  Basis Set: (AUG-CC-PVTZ AUX)
    Blend: AUG-CC-PVTZ-JKFIT
  @DF-RHF Final Energy:  -308.28871860253275
    Total Energy =                       -308.2887186025327537
 Dipole X            :         -0.8959099           -0.0000000           -0.8959099
 Dipole Y            :          0.1015827           -0.0000151            0.1015676
 Dipole Z            :          0.4457957           -0.0000000            0.4457957
 Magnitude           :                                                    1.0058351
  //            Monomer A HF           //
    Molecular point group: c1
  Multiplicity = 1
  Basis Set: AUG-CC-PVTZ
    Blend: AUG-CC-PVTZ
  Basis Set: (AUG-CC-PVTZ AUX)
    Blend: AUG-CC-PVTZ-JKFIT
  @DF-RHF Final Energy:  -154.14514446426878
    Total Energy =                       -154.1451444642687818
  //            Monomer B HF           //
    Molecular point group: c1

    Geometry (in Angstrom), charge = 0, multiplicity = 1:

       Center              X                  Y                   Z               Mass
    ------------   -----------------  -----------------  -----------------  -----------------
      Gh(C)          -2.349038000000    -1.157925000000     0.034796000000    12.000000000000
      Gh(C)          -2.056539000000     0.254134000000     0.474099000000    12.000000000000
      Gh(O)          -1.466127000000     1.027122000000    -0.547162000000    15.994914619570
      Gh(H)          -2.044202000000     1.012050000000    -1.314173000000     1.007825032230
      Gh(H)          -2.772715000000    -1.745591000000     0.851689000000     1.007825032230
      Gh(H)          -1.437215000000    -1.650556000000    -0.309185000000     1.007825032230
      Gh(H)          -3.070166000000    -1.168403000000    -0.788025000000     1.007825032230
      Gh(H)          -1.338097000000     0.256338000000     1.299576000000     1.007825032230
      Gh(H)          -2.969983000000     0.735774000000     0.851362000000     1.007825032230
         C            1.812643000000     1.175608000000     0.267567000000    12.000000000000
         C            1.500073000000    -0.258318000000    -0.073084000000    12.000000000000
         O            2.656582000000    -1.052379000000    -0.216325000000    15.994914619570
         H            3.191286000000    -0.947763000000     0.574607000000     1.007825032230
         H            0.896190000000     1.767216000000     0.310822000000     1.007825032230
         H            2.472721000000     1.612217000000    -0.484809000000     1.007825032230
         H            2.313676000000     1.247640000000     1.238406000000     1.007825032230
         H            0.969069000000    -0.311788000000    -1.026278000000     1.007825032230
         H            0.822962000000    -0.686080000000     0.683636000000     1.007825032230

  Charge       = 0
  Multiplicity = 1
  Basis Set: AUG-CC-PVTZ
    Blend: AUG-CC-PVTZ
  Basis Set: (AUG-CC-PVTZ AUX)
    Blend: AUG-CC-PVTZ-JKFIT

    Orbital Energies [Eh]
    ---------------------

    Doubly Occupied:

       1A    -20.555683     2A    -11.273368     3A    -11.219067
       4A     -1.362234     5A     -1.015442     6A     -0.848531
       7A     -0.685143     8A     -0.626814     9A     -0.614736
      10A     -0.542915    11A     -0.527852    12A     -0.481771
      13A     -0.442103

  @DF-RHF Final Energy:  -154.14499230308584

   => Energetics <=

    Nuclear Repulsion Energy =             82.1606935157943781
    One-Electron Energy =                -372.2200509327950613
    Two-Electron Energy =                 135.9143651139148403
    Total Energy =                       -154.1449923030858429
 Dipole X            :        -98.0511319           97.8780925           -0.1730394
 Dipole Y            :          0.8951689           -0.4419125            0.4532565
 Dipole Z            :         -0.8580516            1.3845683            0.5265167
 Magnitude           :                                                    0.7159636

    SAPT Results
  --------------------------------------------------------------------------------------------------------
    Electrostatics                 -3.41943920 [mEh]      -2.14573050 [kcal/mol]      -8.97773639 [kJ/mol]
      Elst10,r                     -3.07511340 [mEh]      -1.92966279 [kcal/mol]      -8.07370911 [kJ/mol]
      Elst12,r                     -0.34432581 [mEh]      -0.21606771 [kcal/mol]      -0.90402728 [kJ/mol]

    Exchange                        6.17491389 [mEh]       3.87481696 [kcal/mol]      16.21223417 [kJ/mol]
      Exch10                        5.36201367 [mEh]       3.36471438 [kcal/mol]      14.07796495 [kJ/mol]
      Exch10(S^2)                   5.35492762 [mEh]       3.36026781 [kcal/mol]      14.05936054 [kJ/mol]
      Exch11(S^2)                   0.04371881 [mEh]       0.02743397 [kcal/mol]       0.11478373 [kJ/mol]
      Exch12(S^2)                   0.76918140 [mEh]       0.48266862 [kcal/mol]       2.01948549 [kJ/mol]

    Induction                      -0.93762784 [mEh]      -0.58837035 [kcal/mol]      -2.46174156 [kJ/mol]
      Ind20,r                      -1.49066361 [mEh]      -0.93540554 [kcal/mol]      -3.91373678 [kJ/mol]
      Ind22                        -0.20152198 [mEh]      -0.12645695 [kcal/mol]      -0.52909589 [kJ/mol]
      Exch-Ind20,r                  0.98106471 [mEh]       0.61562740 [kcal/mol]       2.57578504 [kJ/mol]
      Exch-Ind22                    0.13262959 [mEh]       0.08322632 [kcal/mol]       0.34821894 [kJ/mol]
      delta HF,r (2)               -0.35913655 [mEh]      -0.22536159 [kcal/mol]      -0.94291287 [kJ/mol]

    Dispersion                     -5.89183993 [mEh]      -3.69718537 [kcal/mol]     -15.46902360 [kJ/mol]
      Disp20                       -5.97355389 [mEh]      -3.74846166 [kcal/mol]     -15.68356359 [kJ/mol]
      Disp21                        0.31710101 [mEh]       0.19898389 [kcal/mol]       0.83254859 [kJ/mol]
      Disp22 (SDQ)                  0.12187517 [mEh]       0.07647783 [kcal/mol]       0.31998322 [kJ/mol]
      Disp22 (T)                   -0.85052993 [mEh]      -0.53371559 [kcal/mol]      -2.23306602 [kJ/mol]
      Est. Disp22 (T)              -0.94786788 [mEh]      -0.59479607 [kcal/mol]      -2.48862677 [kJ/mol]
      Exch-Disp20                   0.59060566 [mEh]       0.37061065 [kcal/mol]       1.55063494 [kJ/mol]

  Total HF                          1.41816482 [mEh]       0.88991186 [kcal/mol]       3.72339123 [kJ/mol]
  Total SAPT0                      -3.96478341 [mEh]      -2.48793915 [kcal/mol]     -10.40953741 [kJ/mol]
  Total SAPT2                      -3.56510139 [mEh]      -2.23713490 [kcal/mol]      -9.36017242 [kJ/mol]
  Total SAPT2+                     -4.07399309 [mEh]      -2.55646926 [kcal/mol]     -10.69626738 [kJ/mol]

  Special recipe for scaled SAPT0 (see Manual):
    Electrostatics sSAPT0          -3.07511340 [mEh]      -1.92966279 [kcal/mol]      -8.07370911 [kJ/mol]
    Exchange sSAPT0                 5.36201367 [mEh]       3.36471438 [kcal/mol]      14.07796495 [kJ/mol]
    Induction sSAPT0               -0.86483564 [mEh]      -0.54269255 [kcal/mol]      -2.27062565 [kJ/mol]
    Dispersion sSAPT0              -5.38060053 [mEh]      -3.37637781 [kcal/mol]     -14.12676474 [kJ/mol]
  Total sSAPT0                     -3.95853589 [mEh]      -2.48401877 [kcal/mol]     -10.39313455 [kJ/mol]
  --------------------------------------------------------------------------------------------------------

*** Psi4 exiting successfully. Buy a developer a beer!
