                               Psi4 1.9 release

  ==> Input File <==

--------------------------------------------------------------------------
MEMORY 10 GB

molecule dimer {
0 1
C    2.380420   1.099443  -0.153296
C    1.968206  -0.101300   0.656339
O    1.482200  -1.158100  -0.156642
H    2.162096  -1.396010  -0.792774
H    2.728678   1.905816   0.494852
H    1.537414   1.468596  -0.740638
H    3.197024   0.849300  -0.837255
H    1.142953   0.153809   1.325995
H    2.794870  -0.457704   1.284110
--
0 1
C   -3.074330   0.469154   0.266295
C   -1.887023  -0.446254   0.149997
O   -0.976330   0.118321  -0.758439
H   -0.171906  -0.421713  -0.755292
H   -3.817331   0.064265   0.955672
H   -3.545282   0.603664  -0.709441
H   -2.764939   1.452055   0.627231
H   -2.213377  -1.442299  -0.185903
H   -1.420797  -0.587804   1.138083

units ang
no_reorient
no_com
symmetry c1
}

set {
basis        aug-cc-pVTZ
scf_type     df
}

energy("sapt2+")
--------------------------------------------------------------------------

  //              Dimer HF             //
    Molecular point group: c1
  Charge       = 0
  Multiplicity = 1
  Basis Set: AUG-CC-PVTZ
    Blend: AUG-CC-PVTZ
  Basis Set: (AUG-CC-PVTZ AUX)
    Blend: AUG-CC-PVTZ-JKFIT
  @DF-RHF Final Energy:  -308.29463287389603
    Total Energy =                       -308.2946328738960347
 Dipole X            :          0.9731904            0.0000019            0.9731923
 Dipole Y            :         -0.1975882            0.0000019           -0.1975863
 Dipole Z            :          0.3276302            0.0000038            0.3276340
 Magnitude           :                                                    1.0456995
  //            Monomer A HF           //
    Molecular point group: c1
  Multiplicity = 1
  Basis Set: AUG-CC-PVTZ
    Blend: AUG-CC-PVTZ
  Basis Set: (AUG-CC-PVTZ AUX)
    Blend: AUG-CC-PVTZ-JKFIT
  @DF-RHF Final Energy:  -154.14507886679382
    Total Energy =                       -154.1450788667938241
  //            Monomer B HF           //
    Molecular point group: c1

    Geometry (in Angstrom), charge = 0, multiplicity = 1:

       Center              X                  Y                   Z               Mass
    ------------   -----------------  -----------------  -----------------  -----------------
      Gh(C)           2.380420000000     1.099443000000    -0.153296000000    12.000000000000
      Gh(C)           1.968206000000    -0.101300000000     0.656339000000    12.000000000000
      Gh(O)           1.482200000000    -1.158100000000    -0.156642000000    15.994914619570
      Gh(H)           2.162096000000    -1.396010000000    -0.792774000000     1.007825032230
      Gh(H)           2.728678000000     1.905816000000     0.494852000000     1.007825032230
      Gh(H)           1.537414000000     1.468596000000    -0.740638000000     1.007825032230
      Gh(H)           3.197024000000     0.849300000000    -0.837255000000     1.007825032230
      Gh(H)           1.142953000000     0.153809000000     1.325995000000     1.007825032230
      Gh(H)           2.794870000000    -0.457704000000     1.284110000000     1.007825032230
         C           -3.074330000000     0.469154000000     0.266295000000    12.000000000000
         C           -1.887023000000    -0.446254000000     0.149997000000    12.000000000000
         O           -0.976330000000     0.118321000000    -0.758439000000    15.994914619570
         H           -0.171906000000    -0.421713000000    -0.755292000000     1.007825032230
         H           -3.817331000000     0.064265000000     0.955672000000     1.007825032230
         H           -3.545282000000     0.603664000000    -0.709441000000     1.007825032230
         H           -2.764939000000     1.452055000000     0.627231000000     1.007825032230
         H           -2.213377000000    -1.442299000000    -0.185903000000     1.007825032230
         H           -1.420797000000    -0.587804000000     1.138083000000     1.007825032230

  Charge       = 0
  Multiplicity = 1
  Basis Set: AUG-CC-PVTZ
    Blend: AUG-CC-PVTZ
  Basis Set: (AUG-CC-PVTZ AUX)
    Blend: AUG-CC-PVTZ-JKFIT

    Orbital Energies [Eh]
    ---------------------

    Doubly Occupied:

       1A    -20.557624     2A    -11.273413     3A    -11.210828
       4A     -1.363074     5A     -1.012850     6A     -0.832558
       7A     -0.702997     8A     -0.645269     9A     -0.575725
      10A     -0.534470    11A     -0.524602    12A     -0.488155
      13A     -0.438668

  @DF-RHF Final Energy:  -154.14505081071025

   => Energetics <=

    Nuclear Repulsion Energy =             82.2696635824135285
    One-Electron Energy =                -372.5089595700494556
    Two-Electron Energy =                 136.0942451769257104
    Total Energy =                       -154.1450508107102451
 Dipole X            :         97.4482291          -97.3443092            0.1039200
 Dipole Y            :         -1.9573856            1.4213310           -0.5360546
 Dipole Z            :          5.0937938           -4.7232004            0.3705934
 Magnitude           :                                                    0.6599192

    SAPT Results
  --------------------------------------------------------------------------------------------------------
    Electrostatics                -16.00341888 [mEh]     -10.04229696 [kcal/mol]     -42.01697048 [kJ/mol]
      Elst10,r                    -15.46205346 [mEh]      -9.70258503 [kcal/mol]     -40.59561576 [kJ/mol]
      Elst12,r                     -0.54136542 [mEh]      -0.33971193 [kcal/mol]      -1.42135472 [kJ/mol]

    Exchange                       18.57508522 [mEh]      11.65604195 [kcal/mol]      48.76887954 [kJ/mol]
      Exch10                       15.71809237 [mEh]       9.86325187 [kcal/mol]      41.26784584 [kJ/mol]
      Exch10(S^2)                  15.59495684 [mEh]       9.78598316 [kcal/mol]      40.94455354 [kJ/mol]
      Exch11(S^2)                   0.13988130 [mEh]       0.08777684 [kcal/mol]       0.36725830 [kJ/mol]
      Exch12(S^2)                   2.71711156 [mEh]       1.70501324 [kcal/mol]       7.13377541 [kJ/mol]

    Induction                      -5.29658448 [mEh]      -3.32365694 [kcal/mol]     -13.90618063 [kJ/mol]
      Ind20,r                      -6.99371260 [mEh]      -4.38862091 [kcal/mol]     -18.36198989 [kJ/mol]
      Ind22                        -1.36293428 [mEh]      -0.85525417 [kcal/mol]      -3.57838346 [kJ/mol]
      Exch-Ind20,r                  4.23637812 [mEh]       2.65836741 [kcal/mol]      11.12260922 [kJ/mol]
      Exch-Ind22                    0.82558511 [mEh]       0.51806248 [kcal/mol]       2.16757340 [kJ/mol]
      delta HF,r (2)               -2.00190083 [mEh]      -1.25621174 [kcal/mol]      -5.25598990 [kJ/mol]

    Dispersion                     -8.23932461 [mEh]      -5.17025425 [kcal/mol]     -21.63234379 [kJ/mol]
      Disp20                       -8.45545534 [mEh]      -5.30587833 [kcal/mol]     -22.19979494 [kJ/mol]
      Disp21                        0.51487725 [mEh]       0.32309036 [kcal/mol]       1.35181005 [kJ/mol]
      Disp22 (SDQ)                 -0.09583728 [mEh]      -0.06013880 [kcal/mol]      -0.25162075 [kJ/mol]
      Disp22 (T)                   -1.30749123 [mEh]      -0.82046313 [kcal/mol]      -3.43281775 [kJ/mol]
      Est. Disp22 (T)              -1.47654793 [mEh]      -0.92654781 [kcal/mol]      -3.87667604 [kJ/mol]
      Exch-Disp20                   1.27363868 [mEh]       0.79922034 [kcal/mol]       3.34393790 [kJ/mol]

  Total HF                         -4.50319639 [mEh]      -2.82579840 [kcal/mol]     -11.82314050 [kJ/mol]
  Total SAPT0                     -11.68501305 [mEh]      -7.33245639 [kcal/mol]     -30.67899754 [kJ/mol]
  Total SAPT2                      -9.90673479 [mEh]      -6.21656994 [kcal/mol]     -26.01012862 [kJ/mol]
  Total SAPT2+                    -10.96424275 [mEh]      -6.88016620 [kcal/mol]     -28.78661536 [kJ/mol]

  Special recipe for scaled SAPT0 (see Manual):
    Electrostatics sSAPT0         -15.46205346 [mEh]      -9.70258503 [kcal/mol]     -40.59561576 [kJ/mol]
    Exchange sSAPT0                15.71809237 [mEh]       9.86325187 [kcal/mol]      41.26784584 [kJ/mol]
    Induction sSAPT0               -4.65809138 [mEh]      -2.92299647 [kcal/mol]     -12.22981724 [kJ/mol]
    Dispersion sSAPT0              -7.15140842 [mEh]      -4.48757653 [kcal/mol]     -18.77602021 [kJ/mol]
  Total sSAPT0                    -11.55346089 [mEh]      -7.24990616 [kcal/mol]     -30.33360737 [kJ/mol]
  --------------------------------------------------------------------------------------------------------

*** Psi4 exiting successfully. Buy a developer a beer!
