                               Psi4 1.9 release

  ==> Input File <==

--------------------------------------------------------------------------
MEMORY 10 GB

molecule dimer {
0 1
C   -1.622156  -1.034011   0.723606
C   -1.747571  -0.191969  -0.519332
O   -1.849541   1.187285  -0.228957
H   -2.586585   1.315770   0.373451
H   -1.465242  -2.084267   0.470869
H   -2.522520  -0.965561   1.342356
H   -0.772502  -0.698902   1.323255
H   -2.601103  -0.525898  -1.126410
H   -0.849120  -0.305686  -1.130386
--
0 1
C    1.641844   1.231324   0.240183
C    2.023378  -0.218832   0.397284
O    1.571823  -1.020440  -0.674060
H    1.922783  -0.653804  -1.489878
H    1.995956   1.821418   1.088424
H    0.557513   1.350763   0.164426
H    2.093802   1.653399  -0.662995
H    1.564837  -0.641555   1.296139
H    3.110955  -0.319504   0.524445

units ang
no_reorient
no_com
symmetry c1
}

set {
basis        aug-cc-pVTZ
scf_type     df
}

energy("sapt2+")
--------------------------------------------------------------------------

  //              Dimer HF             //
    Molecular point group: c1
  Charge       = 0
  Multiplicity = 1
  Basis Set: AUG-CC-PVTZ
    Blend: AUG-CC-PVTZ
  Basis Set: (AUG-CC-PVTZ AUX)
    Blend: AUG-CC-PVTZ-JKFIT
  @DF-RHF Final Energy:  -308.28816272989008
    Total Energy =                       -308.2881627298900753
 Dipole X            :          0.0011900            0.0000000            0.0011900
 Dipole Y            :          0.0522678            0.0000094            0.0522773
 Dipole Z            :          0.2011575            0.0000113            0.2011688
 Magnitude           :                                                    0.2078538
  //            Monomer A HF           //
    Molecular point group: c1
  Multiplicity = 1
  Basis Set: AUG-CC-PVTZ
    Blend: AUG-CC-PVTZ
  Basis Set: (AUG-CC-PVTZ AUX)
    Blend: AUG-CC-PVTZ-JKFIT
  @DF-RHF Final Energy:  -154.14505270605665
    Total Energy =                       -154.1450527060566458
  //            Monomer B HF           //
    Molecular point group: c1

    Geometry (in Angstrom), charge = 0, multiplicity = 1:

       Center              X                  Y                   Z               Mass
    ------------   -----------------  -----------------  -----------------  -----------------
      Gh(C)          -1.622156000000    -1.034011000000     0.723606000000    12.000000000000
      Gh(C)          -1.747571000000    -0.191969000000    -0.519332000000    12.000000000000
      Gh(O)          -1.849541000000     1.187285000000    -0.228957000000    15.994914619570
      Gh(H)          -2.586585000000     1.315770000000     0.373451000000     1.007825032230
      Gh(H)          -1.465242000000    -2.084267000000     0.470869000000     1.007825032230
      Gh(H)          -2.522520000000    -0.965561000000     1.342356000000     1.007825032230
      Gh(H)          -0.772502000000    -0.698902000000     1.323255000000     1.007825032230
      Gh(H)          -2.601103000000    -0.525898000000    -1.126410000000     1.007825032230
      Gh(H)          -0.849120000000    -0.305686000000    -1.130386000000     1.007825032230
         C            1.641844000000     1.231324000000     0.240183000000    12.000000000000
         C            2.023378000000    -0.218832000000     0.397284000000    12.000000000000
         O            1.571823000000    -1.020440000000    -0.674060000000    15.994914619570
         H            1.922783000000    -0.653804000000    -1.489878000000     1.007825032230
         H            1.995956000000     1.821418000000     1.088424000000     1.007825032230
         H            0.557513000000     1.350763000000     0.164426000000     1.007825032230
         H            2.093802000000     1.653399000000    -0.662995000000     1.007825032230
         H            1.564837000000    -0.641555000000     1.296139000000     1.007825032230
         H            3.110955000000    -0.319504000000     0.524445000000     1.007825032230

  Charge       = 0
  Multiplicity = 1
  Basis Set: AUG-CC-PVTZ
    Blend: AUG-CC-PVTZ
  Basis Set: (AUG-CC-PVTZ AUX)
    Blend: AUG-CC-PVTZ-JKFIT

    Orbital Energies [Eh]
    ---------------------

    Doubly Occupied:

       1A    -20.555332     2A    -11.273737     3A    -11.219142
       4A     -1.361288     5A     -1.014548     6A     -0.848481
       7A     -0.686310     8A     -0.625240     9A     -0.612069
      10A     -0.544944    11A     -0.525918    12A     -0.481009
      13A     -0.443246

  @DF-RHF Final Energy:  -154.14507506384325

   => Energetics <=

    Nuclear Repulsion Energy =             82.0832458006871803
    One-Electron Energy =                -372.0741117009425807
    Two-Electron Energy =                 135.8457908364121636
    Total Energy =                       -154.1450750638432510
 Dipole X            :        -86.1879408           86.5716835            0.3837428
 Dipole Y            :         -1.5142805            2.1205543            0.6062738
 Dipole Z            :          1.2047382           -1.2228739           -0.0181357
 Magnitude           :                                                    0.7177432

    SAPT Results
  --------------------------------------------------------------------------------------------------------
    Electrostatics                 -5.63114826 [mEh]      -3.53359888 [kcal/mol]     -14.78457771 [kJ/mol]
      Elst10,r                     -5.06647165 [mEh]      -3.17925896 [kcal/mol]     -13.30201949 [kJ/mol]
      Elst12,r                     -0.56467660 [mEh]      -0.35433992 [kcal/mol]      -1.48255822 [kJ/mol]

    Exchange                        9.75130266 [mEh]       6.11903480 [kcal/mol]      25.60204162 [kJ/mol]
      Exch10                        8.52172945 [mEh]       5.34746596 [kcal/mol]      22.37379758 [kJ/mol]
      Exch10(S^2)                   8.50216745 [mEh]       5.33519062 [kcal/mol]      22.32243757 [kJ/mol]
      Exch11(S^2)                   0.08194426 [mEh]       0.05142080 [kcal/mol]       0.21514462 [kJ/mol]
      Exch12(S^2)                   1.14762896 [mEh]       0.72014804 [kcal/mol]       3.01309942 [kJ/mol]

    Induction                      -1.59410734 [mEh]      -1.00031746 [kcal/mol]      -4.18532823 [kJ/mol]
      Ind20,r                      -2.49585253 [mEh]      -1.56617111 [kcal/mol]      -6.55285991 [kJ/mol]
      Ind22                        -0.32375012 [mEh]      -0.20315627 [kcal/mol]      -0.85000583 [kJ/mol]
      Exch-Ind20,r                  1.69494781 [mEh]       1.06359581 [kcal/mol]       4.45008486 [kJ/mol]
      Exch-Ind22                    0.21986057 [mEh]       0.13796459 [kcal/mol]       0.57724385 [kJ/mol]
      delta HF,r (2)               -0.68931306 [mEh]      -0.43255048 [kcal/mol]      -1.80979120 [kJ/mol]

    Dispersion                     -7.62937582 [mEh]      -4.78750561 [kcal/mol]     -20.03092345 [kJ/mol]
      Disp20                       -7.88646341 [mEh]      -4.94883051 [kcal/mol]     -20.70590684 [kJ/mol]
      Disp21                        0.46457236 [mEh]       0.29152356 [kcal/mol]       1.21973456 [kJ/mol]
      Disp22 (SDQ)                  0.13518482 [mEh]       0.08482975 [kcal/mol]       0.35492769 [kJ/mol]
      Disp22 (T)                   -1.10298370 [mEh]      -0.69213272 [kcal/mol]      -2.89588330 [kJ/mol]
      Est. Disp22 (T)              -1.24047233 [mEh]      -0.77840814 [kcal/mol]      -3.25685967 [kJ/mol]
      Exch-Disp20                   0.89780275 [mEh]       0.56337973 [kcal/mol]       2.35718080 [kJ/mol]

  Total HF                          1.96504001 [mEh]       1.23308122 [kcal/mol]       5.15921184 [kJ/mol]
  Total SAPT0                      -5.02362065 [mEh]      -3.15236955 [kcal/mol]     -13.18951420 [kJ/mol]
  Total SAPT2                      -4.46261359 [mEh]      -2.80033230 [kcal/mol]     -11.71659036 [kJ/mol]
  Total SAPT2+                     -5.10332875 [mEh]      -3.20238714 [kcal/mol]     -13.39878778 [kJ/mol]

  Special recipe for scaled SAPT0 (see Manual):
    Electrostatics sSAPT0          -5.06647165 [mEh]      -3.17925896 [kcal/mol]     -13.30201949 [kJ/mol]
    Exchange sSAPT0                 8.52172945 [mEh]       5.34746596 [kcal/mol]      22.37379758 [kJ/mol]
    Induction sSAPT0               -1.47849151 [mEh]      -0.92776743 [kcal/mol]      -3.88177893 [kJ/mol]
    Dispersion sSAPT0              -6.98244933 [mEh]      -4.38155311 [kcal/mol]     -18.33241820 [kJ/mol]
  Total sSAPT0                     -5.00568305 [mEh]      -3.14111354 [kcal/mol]     -13.14241904 [kJ/mol]
  --------------------------------------------------------------------------------------------------------

*** Psi4 exiting successfully. Buy a developer a beer!
