                               Psi4 1.9 release

  ==> Input File <==

--------------------------------------------------------------------------
MEMORY 10 GB

molecule dimer {
0 1
C   -2.998340   0.550351   0.040756
C   -1.535899   0.271909  -0.173320
O   -1.275460  -1.053816   0.198153
H   -0.364241  -1.261540  -0.052863
H   -3.247098   1.580018  -0.222343
H   -3.264821   0.385862   1.086613
H   -3.605355  -0.121481  -0.568933
H   -0.933239   0.978643   0.423478
H   -1.268196   0.449168  -1.227401
--
0 1
C    2.149700   1.251481  -0.129031
C    2.027911  -0.099264   0.526088
O    1.515186  -1.081555  -0.355977
H    2.038153  -1.088784  -1.161518
H    2.510688   1.998978   0.579727
H    1.181988   1.580481  -0.514378
H    2.856407   1.220053  -0.963699
H    1.323546  -0.063289   1.361837
H    2.994125  -0.422006   0.935112

units ang
no_reorient
no_com
symmetry c1
}

set {
basis        aug-cc-pVTZ
scf_type     df
}

energy("sapt2+")
--------------------------------------------------------------------------

  //              Dimer HF             //
    Molecular point group: c1
  Charge       = 0
  Multiplicity = 1
  Basis Set: AUG-CC-PVTZ
    Blend: AUG-CC-PVTZ
  Basis Set: (AUG-CC-PVTZ AUX)
    Blend: AUG-CC-PVTZ-JKFIT
  @DF-RHF Final Energy:  -308.29349023352881
    Total Energy =                       -308.2934902335288143
 Dipole X            :          1.2237520           -0.0000057            1.2237463
 Dipole Y            :          0.8268247           -0.0000057            0.8268191
 Dipole Z            :         -0.4154689           -0.0000038           -0.4154726
 Magnitude           :                                                    1.5342107
  //            Monomer A HF           //
    Molecular point group: c1
  Multiplicity = 1
  Basis Set: AUG-CC-PVTZ
    Blend: AUG-CC-PVTZ
  Basis Set: (AUG-CC-PVTZ AUX)
    Blend: AUG-CC-PVTZ-JKFIT
  @DF-RHF Final Energy:  -154.14497483844011
    Total Energy =                       -154.1449748384401062
  //            Monomer B HF           //
    Molecular point group: c1

    Geometry (in Angstrom), charge = 0, multiplicity = 1:

       Center              X                  Y                   Z               Mass
    ------------   -----------------  -----------------  -----------------  -----------------
      Gh(C)          -2.998340000000     0.550351000000     0.040756000000    12.000000000000
      Gh(C)          -1.535899000000     0.271909000000    -0.173320000000    12.000000000000
      Gh(O)          -1.275460000000    -1.053816000000     0.198153000000    15.994914619570
      Gh(H)          -0.364241000000    -1.261540000000    -0.052863000000     1.007825032230
      Gh(H)          -3.247098000000     1.580018000000    -0.222343000000     1.007825032230
      Gh(H)          -3.264821000000     0.385862000000     1.086613000000     1.007825032230
      Gh(H)          -3.605355000000    -0.121481000000    -0.568933000000     1.007825032230
      Gh(H)          -0.933239000000     0.978643000000     0.423478000000     1.007825032230
      Gh(H)          -1.268196000000     0.449168000000    -1.227401000000     1.007825032230
         C            2.149700000000     1.251481000000    -0.129031000000    12.000000000000
         C            2.027911000000    -0.099264000000     0.526088000000    12.000000000000
         O            1.515186000000    -1.081555000000    -0.355977000000    15.994914619570
         H            2.038153000000    -1.088784000000    -1.161518000000     1.007825032230
         H            2.510688000000     1.998978000000     0.579727000000     1.007825032230
         H            1.181988000000     1.580481000000    -0.514378000000     1.007825032230
         H            2.856407000000     1.220053000000    -0.963699000000     1.007825032230
         H            1.323546000000    -0.063289000000     1.361837000000     1.007825032230
         H            2.994125000000    -0.422006000000     0.935112000000     1.007825032230

  Charge       = 0
  Multiplicity = 1
  Basis Set: AUG-CC-PVTZ
    Blend: AUG-CC-PVTZ
  Basis Set: (AUG-CC-PVTZ AUX)
    Blend: AUG-CC-PVTZ-JKFIT

    Orbital Energies [Eh]
    ---------------------

    Doubly Occupied:

       1A    -20.554057     2A    -11.273716     3A    -11.219217
       4A     -1.358761     5A     -1.015341     6A     -0.849429
       7A     -0.683909     8A     -0.624782     9A     -0.614696
      10A     -0.542535    11A     -0.526041    12A     -0.482150
      13A     -0.442855

  @DF-RHF Final Energy:  -154.14510152414823

   => Energetics <=

    Nuclear Repulsion Energy =             82.0793953025105623
    One-Electron Energy =                -372.0740125661540674
    Two-Electron Energy =                 135.8495157394952457
    Total Energy =                       -154.1451015241482310
 Dipole X            :        -94.1310215           94.6602763            0.5292549
 Dipole Y            :         -2.3352254            2.8086905            0.4734651
 Dipole Z            :          0.3226499           -0.4316002           -0.1089503
 Magnitude           :                                                    0.7184359

    SAPT Results
  --------------------------------------------------------------------------------------------------------
    Electrostatics                -14.44566602 [mEh]      -9.06479228 [kcal/mol]     -37.92709091 [kJ/mol]
      Elst10,r                    -14.13542878 [mEh]      -8.87011547 [kcal/mol]     -37.11256314 [kJ/mol]
      Elst12,r                     -0.31023724 [mEh]      -0.19467681 [kcal/mol]      -0.81452777 [kJ/mol]

    Exchange                       17.70607957 [mEh]      11.11073268 [kcal/mol]      46.48730552 [kJ/mol]
      Exch10                       15.18510281 [mEh]       9.52879587 [kcal/mol]      39.86848194 [kJ/mol]
      Exch10(S^2)                  15.08767593 [mEh]       9.46765958 [kcal/mol]      39.61268770 [kJ/mol]
      Exch11(S^2)                   0.14732303 [mEh]       0.09244660 [kcal/mol]       0.38679656 [kJ/mol]
      Exch12(S^2)                   2.37365373 [mEh]       1.48949021 [kcal/mol]       6.23202702 [kJ/mol]

    Induction                      -4.91989093 [mEh]      -3.08727817 [kcal/mol]     -12.91717185 [kJ/mol]
      Ind20,r                      -6.27518764 [mEh]      -3.93773969 [kcal/mol]     -16.47550287 [kJ/mol]
      Ind22                        -1.12494849 [mEh]      -0.70591584 [kcal/mol]      -2.95355186 [kJ/mol]
      Exch-Ind20,r                  3.72959865 [mEh]       2.34035849 [kcal/mol]       9.79205990 [kJ/mol]
      Exch-Ind22                    0.66860254 [mEh]       0.41955443 [kcal/mol]       1.75541572 [kJ/mol]
      delta HF,r (2)               -1.91795599 [mEh]      -1.20353555 [kcal/mol]      -5.03559275 [kJ/mol]

    Dispersion                     -8.69957166 [mEh]      -5.45906363 [kcal/mol]     -22.84072224 [kJ/mol]
      Disp20                       -8.88043696 [mEh]      -5.57255833 [kcal/mol]     -23.31558404 [kJ/mol]
      Disp21                        0.45718259 [mEh]       0.28688640 [kcal/mol]       1.20033272 [kJ/mol]
      Disp22 (SDQ)                 -0.01446041 [mEh]      -0.00907404 [kcal/mol]      -0.03796580 [kJ/mol]
      Disp22 (T)                   -1.33829441 [mEh]      -0.83979242 [kcal/mol]      -3.51369148 [kJ/mol]
      Est. Disp22 (T)              -1.51144111 [mEh]      -0.94844362 [kcal/mol]      -3.96828809 [kJ/mol]
      Exch-Disp20                   1.24958424 [mEh]       0.78412595 [kcal/mol]       3.28078297 [kJ/mol]

  Total HF                         -3.41387094 [mEh]      -2.14223636 [kcal/mol]      -8.96311692 [kJ/mol]
  Total SAPT0                     -11.04472366 [mEh]      -6.93066873 [kcal/mol]     -28.99791799 [kJ/mol]
  Total SAPT2                      -9.29033010 [mEh]      -5.82977015 [kcal/mol]     -24.39175832 [kJ/mol]
  Total SAPT2+                    -10.35904903 [mEh]      -6.50040141 [kcal/mol]     -27.19767949 [kJ/mol]

  Special recipe for scaled SAPT0 (see Manual):
    Electrostatics sSAPT0         -14.13542878 [mEh]      -8.87011547 [kcal/mol]     -37.11256314 [kJ/mol]
    Exchange sSAPT0                15.18510281 [mEh]       9.52879587 [kcal/mol]      39.86848194 [kJ/mol]
    Induction sSAPT0               -4.39082710 [mEh]      -2.75528560 [kcal/mol]     -11.52811496 [kJ/mol]
    Dispersion sSAPT0              -7.60648895 [mEh]      -4.77314388 [kcal/mol]     -19.97083398 [kJ/mol]
  Total sSAPT0                    -10.94764201 [mEh]      -6.86974908 [kcal/mol]     -28.74303014 [kJ/mol]
  --------------------------------------------------------------------------------------------------------

*** Psi4 exiting successfully. Buy a developer a beer!
