                               Psi4 1.9 release

  ==> Input File <==

--------------------------------------------------------------------------
MEMORY 10 GB

molecule dimer {
0 1
C   -1.831657  -0.837081   0.886327
C   -1.639715  -0.303433  -0.511246
O   -1.708178   1.107656  -0.558073
H   -2.549813   1.383081  -0.185907
H   -1.716619  -1.922841   0.913057
H   -2.829746  -0.599590   1.267641
H   -1.099505  -0.395839   1.567667
H   -2.375171  -0.751537  -1.194355
H   -0.648066  -0.567271  -0.890410
--
0 1
C    1.570030   1.079434   0.625875
C    1.898950  -0.373594   0.394867
O    1.758896  -0.754222  -0.957044
H    2.230812  -0.117480  -1.500073
H    1.646712   1.333345   1.685611
H    0.557707   1.312018   0.284040
H    2.268859   1.724683   0.084118
H    1.212315  -1.015944   0.955554
H    2.911124  -0.602052   0.759050

units ang
no_reorient
no_com
symmetry c1
}

set {
basis        aug-cc-pVTZ
scf_type     df
}

energy("sapt2+")
--------------------------------------------------------------------------

  //              Dimer HF             //
    Molecular point group: c1
  Charge       = 0
  Multiplicity = 1
  Basis Set: AUG-CC-PVTZ
    Blend: AUG-CC-PVTZ
  Basis Set: (AUG-CC-PVTZ AUX)
    Blend: AUG-CC-PVTZ-JKFIT
  @DF-RHF Final Energy:  -308.28790276854932
    Total Energy =                       -308.2879027685493156
 Dipole X            :         -0.1484792            0.0000019           -0.1484773
 Dipole Y            :          0.1384745            0.0000019            0.1384764
 Dipole Z            :          0.4727539           -0.0000094            0.4727444
 Magnitude           :                                                    0.5144983
  //            Monomer A HF           //
    Molecular point group: c1
  Multiplicity = 1
  Basis Set: AUG-CC-PVTZ
    Blend: AUG-CC-PVTZ
  Basis Set: (AUG-CC-PVTZ AUX)
    Blend: AUG-CC-PVTZ-JKFIT
  @DF-RHF Final Energy:  -154.14509269457824
    Total Energy =                       -154.1450926945782385
  //            Monomer B HF           //
    Molecular point group: c1

    Geometry (in Angstrom), charge = 0, multiplicity = 1:

       Center              X                  Y                   Z               Mass
    ------------   -----------------  -----------------  -----------------  -----------------
      Gh(C)          -1.831657000000    -0.837081000000     0.886327000000    12.000000000000
      Gh(C)          -1.639715000000    -0.303433000000    -0.511246000000    12.000000000000
      Gh(O)          -1.708178000000     1.107656000000    -0.558073000000    15.994914619570
      Gh(H)          -2.549813000000     1.383081000000    -0.185907000000     1.007825032230
      Gh(H)          -1.716619000000    -1.922841000000     0.913057000000     1.007825032230
      Gh(H)          -2.829746000000    -0.599590000000     1.267641000000     1.007825032230
      Gh(H)          -1.099505000000    -0.395839000000     1.567667000000     1.007825032230
      Gh(H)          -2.375171000000    -0.751537000000    -1.194355000000     1.007825032230
      Gh(H)          -0.648066000000    -0.567271000000    -0.890410000000     1.007825032230
         C            1.570030000000     1.079434000000     0.625875000000    12.000000000000
         C            1.898950000000    -0.373594000000     0.394867000000    12.000000000000
         O            1.758896000000    -0.754222000000    -0.957044000000    15.994914619570
         H            2.230812000000    -0.117480000000    -1.500073000000     1.007825032230
         H            1.646712000000     1.333345000000     1.685611000000     1.007825032230
         H            0.557707000000     1.312018000000     0.284040000000     1.007825032230
         H            2.268859000000     1.724683000000     0.084118000000     1.007825032230
         H            1.212315000000    -1.015944000000     0.955554000000     1.007825032230
         H            2.911124000000    -0.602052000000     0.759050000000     1.007825032230

  Charge       = 0
  Multiplicity = 1
  Basis Set: AUG-CC-PVTZ
    Blend: AUG-CC-PVTZ
  Basis Set: (AUG-CC-PVTZ AUX)
    Blend: AUG-CC-PVTZ-JKFIT

    Orbital Energies [Eh]
    ---------------------

    Doubly Occupied:

       1A    -20.555079     2A    -11.273655     3A    -11.220157
       4A     -1.361410     5A     -1.014904     6A     -0.849505
       7A     -0.683423     8A     -0.625150     9A     -0.617194
      10A     -0.542638    11A     -0.526673    12A     -0.482496
      13A     -0.442362

  @DF-RHF Final Energy:  -154.14493586697142

   => Energetics <=

    Nuclear Repulsion Energy =             82.1317439435950831
    One-Electron Energy =                -372.1640643692587673
    Two-Electron Energy =                 135.8873845586922471
    Total Energy =                       -154.1449358669714229
 Dipole X            :        -86.0670158           86.3842510            0.3172352
 Dipole Y            :         -0.9912559            1.5794973            0.5882415
 Dipole Z            :         -1.1146297            1.3915943            0.2769646
 Magnitude           :                                                    0.7234470

    SAPT Results
  --------------------------------------------------------------------------------------------------------
    Electrostatics                 -6.29898514 [mEh]      -3.95267285 [kcal/mol]     -16.53798320 [kJ/mol]
      Elst10,r                     -5.70532841 [mEh]      -3.58014763 [kcal/mol]     -14.97933767 [kJ/mol]
      Elst12,r                     -0.59365673 [mEh]      -0.37252522 [kcal/mol]      -1.55864553 [kJ/mol]

    Exchange                       10.78855594 [mEh]       6.76992106 [kcal/mol]      28.32534971 [kJ/mol]
      Exch10                        9.52594953 [mEh]       5.97762358 [kcal/mol]      25.01037704 [kJ/mol]
      Exch10(S^2)                   9.50187023 [mEh]       5.96251359 [kcal/mol]      24.94715685 [kJ/mol]
      Exch11(S^2)                   0.07640170 [mEh]       0.04794279 [kcal/mol]       0.20059263 [kJ/mol]
      Exch12(S^2)                   1.18620471 [mEh]       0.74435469 [kcal/mol]       3.11438004 [kJ/mol]

    Induction                      -1.79459007 [mEh]      -1.12612227 [kcal/mol]      -4.71169557 [kJ/mol]
      Ind20,r                      -2.81929765 [mEh]      -1.76913599 [kcal/mol]      -7.40206497 [kJ/mol]
      Ind22                        -0.31615523 [mEh]      -0.19839040 [kcal/mol]      -0.83006545 [kJ/mol]
      Exch-Ind20,r                  1.92967577 [mEh]       1.21088983 [kcal/mol]       5.06636304 [kJ/mol]
      Exch-Ind22                    0.21639329 [mEh]       0.13578884 [kcal/mol]       0.56814050 [kJ/mol]
      delta HF,r (2)               -0.80520624 [mEh]      -0.50527454 [kcal/mol]      -2.11406869 [kJ/mol]

    Dispersion                     -7.96140542 [mEh]      -4.99585732 [kcal/mol]     -20.90266704 [kJ/mol]
      Disp20                       -8.34055090 [mEh]      -5.23377471 [kcal/mol]     -21.89811337 [kJ/mol]
      Disp21                        0.50068590 [mEh]       0.31418515 [kcal/mol]       1.31455066 [kJ/mol]
      Disp22 (SDQ)                  0.17751985 [mEh]       0.11139538 [kcal/mol]       0.46607829 [kJ/mol]
      Disp22 (T)                   -1.14314117 [mEh]      -0.71733192 [kcal/mol]      -3.00131673 [kJ/mol]
      Est. Disp22 (T)              -1.28915475 [mEh]      -0.80895682 [kcal/mol]      -3.38467533 [kJ/mol]
      Exch-Disp20                   0.99009448 [mEh]       0.62129367 [kcal/mol]       2.59949271 [kJ/mol]

  Total HF                          2.12579300 [mEh]       1.33395525 [kcal/mol]       5.58126875 [kJ/mol]
  Total SAPT0                      -5.22466341 [mEh]      -3.27852579 [kcal/mol]     -13.71735191 [kJ/mol]
  Total SAPT2                      -4.65547568 [mEh]      -2.92135509 [kcal/mol]     -12.22294971 [kJ/mol]
  Total SAPT2+                     -5.26642468 [mEh]      -3.30473138 [kcal/mol]     -13.82699609 [kJ/mol]

  Special recipe for scaled SAPT0 (see Manual):
    Electrostatics sSAPT0          -5.70532841 [mEh]      -3.58014763 [kcal/mol]     -14.97933767 [kJ/mol]
    Exchange sSAPT0                 9.52594953 [mEh]       5.97762358 [kcal/mol]      25.01037704 [kJ/mol]
    Induction sSAPT0               -1.68012057 [mEh]      -1.05429157 [kcal/mol]      -4.41115594 [kJ/mol]
    Dispersion sSAPT0              -7.34291014 [mEh]      -4.60774568 [kcal/mol]     -19.27880791 [kJ/mol]
  Total sSAPT0                     -5.20240958 [mEh]      -3.26456130 [kcal/mol]     -13.65892448 [kJ/mol]
  --------------------------------------------------------------------------------------------------------

*** Psi4 exiting successfully. Buy a developer a beer!
