                               Psi4 1.9 release

  ==> Input File <==

--------------------------------------------------------------------------
MEMORY 10 GB

molecule dimer {
0 1
C    1.961236   1.130612   0.253374
C    2.127837  -0.331967  -0.067556
O    3.478073  -0.737879  -0.101090
H    3.885435  -0.487135   0.731717
H    0.905357   1.405926   0.227749
H    2.506620   1.746306  -0.464824
H    2.346453   1.356068   1.252949
H    1.725393  -0.547687  -1.061124
H    1.551409  -0.939749   0.645958
--
0 1
C   -3.531567  -0.476223   0.459530
C   -2.628547   0.404930  -0.365731
O   -1.274443   0.020449  -0.279714
H   -1.200308  -0.896139  -0.558121
H   -4.567701  -0.135197   0.411110
H   -3.215951  -0.477591   1.504500
H   -3.506330  -1.508503   0.097813
H   -2.668502   1.436402  -0.006663
H   -2.964672   0.422629  -1.412336

units ang
no_reorient
no_com
symmetry c1
}

set {
basis        aug-cc-pVTZ
scf_type     df
}

energy("sapt2+")
--------------------------------------------------------------------------

  //              Dimer HF             //
    Molecular point group: c1
  Charge       = 0
  Multiplicity = 1
  Basis Set: AUG-CC-PVTZ
    Blend: AUG-CC-PVTZ
  Basis Set: (AUG-CC-PVTZ AUX)
    Blend: AUG-CC-PVTZ-JKFIT
  @DF-RHF Final Energy:  -308.29045655539301
    Total Energy =                       -308.2904565553930070
 Dipole X            :         -1.0538655           -0.0000057           -1.0538711
 Dipole Y            :         -0.0082598            0.0000038           -0.0082561
 Dipole Z            :          0.3285992           -0.0000038            0.3285954
 Magnitude           :                                                    1.1039418
  //            Monomer A HF           //
    Molecular point group: c1
  Multiplicity = 1
  Basis Set: AUG-CC-PVTZ
    Blend: AUG-CC-PVTZ
  Basis Set: (AUG-CC-PVTZ AUX)
    Blend: AUG-CC-PVTZ-JKFIT
  @DF-RHF Final Energy:  -154.14499195992693
    Total Energy =                       -154.1449919599269265
  //            Monomer B HF           //
    Molecular point group: c1

    Geometry (in Angstrom), charge = 0, multiplicity = 1:

       Center              X                  Y                   Z               Mass
    ------------   -----------------  -----------------  -----------------  -----------------
      Gh(C)           1.961236000000     1.130612000000     0.253374000000    12.000000000000
      Gh(C)           2.127837000000    -0.331967000000    -0.067556000000    12.000000000000
      Gh(O)           3.478073000000    -0.737879000000    -0.101090000000    15.994914619570
      Gh(H)           3.885435000000    -0.487135000000     0.731717000000     1.007825032230
      Gh(H)           0.905357000000     1.405926000000     0.227749000000     1.007825032230
      Gh(H)           2.506620000000     1.746306000000    -0.464824000000     1.007825032230
      Gh(H)           2.346453000000     1.356068000000     1.252949000000     1.007825032230
      Gh(H)           1.725393000000    -0.547687000000    -1.061124000000     1.007825032230
      Gh(H)           1.551409000000    -0.939749000000     0.645958000000     1.007825032230
         C           -3.531567000000    -0.476223000000     0.459530000000    12.000000000000
         C           -2.628547000000     0.404930000000    -0.365731000000    12.000000000000
         O           -1.274443000000     0.020449000000    -0.279714000000    15.994914619570
         H           -1.200308000000    -0.896139000000    -0.558121000000     1.007825032230
         H           -4.567701000000    -0.135197000000     0.411110000000     1.007825032230
         H           -3.215951000000    -0.477591000000     1.504500000000     1.007825032230
         H           -3.506330000000    -1.508503000000     0.097813000000     1.007825032230
         H           -2.668502000000     1.436402000000    -0.006663000000     1.007825032230
         H           -2.964672000000     0.422629000000    -1.412336000000     1.007825032230

  Charge       = 0
  Multiplicity = 1
  Basis Set: AUG-CC-PVTZ
    Blend: AUG-CC-PVTZ
  Basis Set: (AUG-CC-PVTZ AUX)
    Blend: AUG-CC-PVTZ-JKFIT

    Orbital Energies [Eh]
    ---------------------

    Doubly Occupied:

       1A    -20.555401     2A    -11.273365     3A    -11.218232
       4A     -1.361912     5A     -1.014542     6A     -0.848632
       7A     -0.687175     8A     -0.625923     9A     -0.612065
      10A     -0.544104    11A     -0.526369    12A     -0.481042
      13A     -0.442922

  @DF-RHF Final Energy:  -154.14515579267507

   => Energetics <=

    Nuclear Repulsion Energy =             82.1558538421157323
    One-Electron Energy =                -372.2186503299764695
    Two-Electron Energy =                 135.9176406951856677
    Total Energy =                       -154.1451557926750695
 Dipole X            :        122.7955155         -123.3607394           -0.5652239
 Dipole Y            :          2.2914711           -2.6882582           -0.3967872
 Dipole Z            :          2.9269299           -3.0965336           -0.1696037
 Magnitude           :                                                    0.7111143

    SAPT Results
  --------------------------------------------------------------------------------------------------------
    Electrostatics                 -2.33095017 [mEh]      -1.46269332 [kcal/mol]      -6.11990883 [kJ/mol]
      Elst10,r                     -2.26172171 [mEh]      -1.41925180 [kcal/mol]      -5.93814954 [kJ/mol]
      Elst12,r                     -0.06922846 [mEh]      -0.04344151 [kcal/mol]      -0.18175929 [kJ/mol]

    Exchange                        2.97464454 [mEh]       1.86661763 [kcal/mol]       7.80992815 [kJ/mol]
      Exch10                        2.56184550 [mEh]       1.60758232 [kcal/mol]       6.72612442 [kJ/mol]
      Exch10(S^2)                   2.55799404 [mEh]       1.60516549 [kcal/mol]       6.71601242 [kJ/mol]
      Exch11(S^2)                  -0.01707858 [mEh]      -0.01071697 [kcal/mol]      -0.04483979 [kJ/mol]
      Exch12(S^2)                   0.42987762 [mEh]       0.26975228 [kcal/mol]       1.12864353 [kJ/mol]

    Induction                      -0.64573240 [mEh]      -0.40520320 [kcal/mol]      -1.69537017 [kJ/mol]
      Ind20,r                      -0.87148148 [mEh]      -0.54686289 [kcal/mol]      -2.28807431 [kJ/mol]
      Ind22                        -0.07601712 [mEh]      -0.04770146 [kcal/mol]      -0.19958292 [kJ/mol]
      Exch-Ind20,r                  0.44952926 [mEh]       0.28208387 [kcal/mol]       1.18023890 [kJ/mol]
      Exch-Ind22                    0.03921130 [mEh]       0.02460546 [kcal/mol]       0.10294925 [kJ/mol]
      delta HF,r (2)               -0.18697435 [mEh]      -0.11732817 [kcal/mol]      -0.49090108 [kJ/mol]

    Dispersion                     -3.03314891 [mEh]      -1.90332968 [kcal/mol]      -7.96353137 [kJ/mol]
      Disp20                       -2.96066299 [mEh]      -1.85784407 [kcal/mol]      -7.77321961 [kJ/mol]
      Disp21                        0.10622290 [mEh]       0.06665587 [kcal/mol]       0.27888818 [kJ/mol]
      Disp22 (SDQ)                  0.05049300 [mEh]       0.03168484 [kcal/mol]       0.13256937 [kJ/mol]
      Disp22 (T)                   -0.45443721 [mEh]      -0.28516365 [kcal/mol]      -1.19312472 [kJ/mol]
      Est. Disp22 (T)              -0.50591180 [mEh]      -0.31746444 [kcal/mol]      -1.32827124 [kJ/mol]
      Exch-Disp20                   0.27670997 [mEh]       0.17363813 [kcal/mol]       0.72650193 [kJ/mol]

  Total HF                         -0.30880279 [mEh]      -0.19377668 [kcal/mol]      -0.81076162 [kJ/mol]
  Total SAPT0                      -2.99275581 [mEh]      -1.87798262 [kcal/mol]      -7.85747930 [kJ/mol]
  Total SAPT2                      -2.68599105 [mEh]      -1.68548483 [kcal/mol]      -7.05206853 [kJ/mol]
  Total SAPT2+                     -3.03518694 [mEh]      -1.90460856 [kcal/mol]      -7.96888223 [kJ/mol]

  Special recipe for scaled SAPT0 (see Manual):
    Electrostatics sSAPT0          -2.26172171 [mEh]      -1.41925180 [kcal/mol]      -5.93814954 [kJ/mol]
    Exchange sSAPT0                 2.56184550 [mEh]       1.60758232 [kcal/mol]       6.72612442 [kJ/mol]
    Induction sSAPT0               -0.60689301 [mEh]      -0.38083111 [kcal/mol]      -1.59339737 [kJ/mol]
    Dispersion sSAPT0              -2.68270125 [mEh]      -1.68342045 [kcal/mol]      -7.04343115 [kJ/mol]
  Total sSAPT0                     -2.98947047 [mEh]      -1.87592104 [kcal/mol]      -7.84885364 [kJ/mol]
  --------------------------------------------------------------------------------------------------------

*** Psi4 exiting successfully. Buy a developer a beer!
