                               Psi4 1.9 release

  ==> Input File <==

--------------------------------------------------------------------------
MEMORY 10 GB

molecule dimer {
0 1
C    1.862056   1.099689  -0.494237
C    2.153424  -0.323352  -0.096233
O    1.266077  -0.794372   0.907334
H    1.314340  -0.198953   1.660400
H    2.551382   1.436913  -1.270552
H    1.970395   1.774971   0.360395
H    0.842008   1.182592  -0.875164
H    3.192826  -0.436332   0.237400
H    2.013241  -0.995254  -0.946438
--
0 1
C   -2.077708   0.940977   0.550635
C   -2.226848  -0.356201  -0.208957
O   -1.029206  -0.767024  -0.812739
H   -0.363226  -0.887019  -0.117518
H   -3.023024   1.250559   1.002007
H   -1.735270   1.737998  -0.113271
H   -1.342478   0.834299   1.354149
H   -2.958255  -0.238640  -1.014122
H   -2.622455  -1.136636   0.458708

units ang
no_reorient
no_com
symmetry c1
}

set {
basis        aug-cc-pVTZ
scf_type     df
}

energy("sapt2+")
--------------------------------------------------------------------------

  //              Dimer HF             //
    Molecular point group: c1
  Charge       = 0
  Multiplicity = 1
  Basis Set: AUG-CC-PVTZ
    Blend: AUG-CC-PVTZ
  Basis Set: (AUG-CC-PVTZ AUX)
    Blend: AUG-CC-PVTZ-JKFIT
  @DF-RHF Final Energy:  -308.29307548938993
    Total Energy =                       -308.2930754893899348
 Dipole X            :          0.5024694           -0.0000076            0.5024619
 Dipole Y            :          0.7097454            0.0000151            0.7097605
 Dipole Z            :          0.6711990            0.0000038            0.6712028
 Magnitude           :                                                    1.0985177
  //            Monomer A HF           //
    Molecular point group: c1
  Multiplicity = 1
  Basis Set: AUG-CC-PVTZ
    Blend: AUG-CC-PVTZ
  Basis Set: (AUG-CC-PVTZ AUX)
    Blend: AUG-CC-PVTZ-JKFIT
  @DF-RHF Final Energy:  -154.14502147869027
    Total Energy =                       -154.1450214786902677
  //            Monomer B HF           //
    Molecular point group: c1

    Geometry (in Angstrom), charge = 0, multiplicity = 1:

       Center              X                  Y                   Z               Mass
    ------------   -----------------  -----------------  -----------------  -----------------
      Gh(C)           1.862056000000     1.099689000000    -0.494237000000    12.000000000000
      Gh(C)           2.153424000000    -0.323352000000    -0.096233000000    12.000000000000
      Gh(O)           1.266077000000    -0.794372000000     0.907334000000    15.994914619570
      Gh(H)           1.314340000000    -0.198953000000     1.660400000000     1.007825032230
      Gh(H)           2.551382000000     1.436913000000    -1.270552000000     1.007825032230
      Gh(H)           1.970395000000     1.774971000000     0.360395000000     1.007825032230
      Gh(H)           0.842008000000     1.182592000000    -0.875164000000     1.007825032230
      Gh(H)           3.192826000000    -0.436332000000     0.237400000000     1.007825032230
      Gh(H)           2.013241000000    -0.995254000000    -0.946438000000     1.007825032230
         C           -2.077708000000     0.940977000000     0.550635000000    12.000000000000
         C           -2.226848000000    -0.356201000000    -0.208957000000    12.000000000000
         O           -1.029206000000    -0.767024000000    -0.812739000000    15.994914619570
         H           -0.363226000000    -0.887019000000    -0.117518000000     1.007825032230
         H           -3.023024000000     1.250559000000     1.002007000000     1.007825032230
         H           -1.735270000000     1.737998000000    -0.113271000000     1.007825032230
         H           -1.342478000000     0.834299000000     1.354149000000     1.007825032230
         H           -2.958255000000    -0.238640000000    -1.014122000000     1.007825032230
         H           -2.622455000000    -1.136636000000     0.458708000000     1.007825032230

  Charge       = 0
  Multiplicity = 1
  Basis Set: AUG-CC-PVTZ
    Blend: AUG-CC-PVTZ
  Basis Set: (AUG-CC-PVTZ AUX)
    Blend: AUG-CC-PVTZ-JKFIT

    Orbital Energies [Eh]
    ---------------------

    Doubly Occupied:

       1A    -20.557138     2A    -11.273191     3A    -11.217680
       4A     -1.363129     5A     -1.012873     6A     -0.847399
       7A     -0.688123     8A     -0.627346     9A     -0.610116
      10A     -0.544635    11A     -0.526843    12A     -0.479124
      13A     -0.441982

  @DF-RHF Final Energy:  -154.14469429686093

   => Energetics <=

    Nuclear Repulsion Energy =             82.1774121923088217
    One-Electron Energy =                -372.2650494471509433
    Two-Electron Energy =                 135.9429429579811597
    Total Energy =                       -154.1446942968609335
 Dipole X            :         87.0145551          -87.1271307           -0.1125756
 Dipole Y            :          2.1582457           -2.0162905            0.1419552
 Dipole Z            :          6.1241896           -5.4459847            0.6782049
 Magnitude           :                                                    0.7019875

    SAPT Results
  --------------------------------------------------------------------------------------------------------
    Electrostatics                -15.81285094 [mEh]      -9.92271377 [kcal/mol]     -41.51663443 [kJ/mol]
      Elst10,r                    -15.11273958 [mEh]      -9.48338726 [kcal/mol]     -39.67849229 [kJ/mol]
      Elst12,r                     -0.70011136 [mEh]      -0.43932651 [kcal/mol]      -1.83814213 [kJ/mol]

    Exchange                       19.41967059 [mEh]      12.18602727 [kcal/mol]      50.98633812 [kJ/mol]
      Exch10                       16.41879420 [mEh]      10.30294891 [kcal/mol]      43.10753824 [kJ/mol]
      Exch10(S^2)                  16.29518841 [mEh]      10.22538510 [kcal/mol]      42.78301126 [kJ/mol]
      Exch11(S^2)                   0.17743697 [mEh]       0.11134338 [kcal/mol]       0.46586070 [kJ/mol]
      Exch12(S^2)                   2.82343942 [mEh]       1.77173498 [kcal/mol]       7.41293917 [kJ/mol]

    Induction                      -5.17484416 [mEh]      -3.24726374 [kcal/mol]     -13.58655147 [kJ/mol]
      Ind20,r                      -7.11569544 [mEh]      -4.46516630 [kcal/mol]     -18.68225582 [kJ/mol]
      Ind22                        -1.33863752 [mEh]      -0.84000773 [kcal/mol]      -3.51459232 [kJ/mol]
      Exch-Ind20,r                  4.40963981 [mEh]       2.76709076 [kcal/mol]      11.57750772 [kJ/mol]
      Exch-Ind22                    0.82956182 [mEh]       0.52055790 [kcal/mol]       2.17801427 [kJ/mol]
      delta HF,r (2)               -1.95971283 [mEh]      -1.22973837 [kcal/mol]      -5.14522533 [kJ/mol]

    Dispersion                     -9.13861796 [mEh]      -5.73456935 [kcal/mol]     -23.99343814 [kJ/mol]
      Disp20                       -9.43739760 [mEh]      -5.92205640 [kcal/mol]     -24.77788399 [kJ/mol]
      Disp21                        0.61137785 [mEh]       0.38364539 [kcal/mol]       1.60517231 [kJ/mol]
      Disp22 (SDQ)                 -0.08051490 [mEh]      -0.05052387 [kcal/mol]      -0.21139185 [kJ/mol]
      Disp22 (T)                   -1.45180818 [mEh]      -0.91102339 [kcal/mol]      -3.81172186 [kJ/mol]
      Est. Disp22 (T)              -1.64180353 [mEh]      -1.03024727 [kcal/mol]      -4.31055458 [kJ/mol]
      Exch-Disp20                   1.40972023 [mEh]       0.88461280 [kcal/mol]       3.70121996 [kJ/mol]

  Total HF                         -3.35971384 [mEh]      -2.10825226 [kcal/mol]      -8.82092747 [kJ/mol]
  Total SAPT0                     -11.38739121 [mEh]      -7.14569586 [kcal/mol]     -29.89759149 [kJ/mol]
  Total SAPT2                      -9.59570188 [mEh]      -6.02139384 [kcal/mol]     -25.19351181 [kJ/mol]
  Total SAPT2+                    -10.70664247 [mEh]      -6.71851958 [kcal/mol]     -28.11028593 [kJ/mol]

  Special recipe for scaled SAPT0 (see Manual):
    Electrostatics sSAPT0         -15.11273958 [mEh]      -9.48338726 [kcal/mol]     -39.67849229 [kJ/mol]
    Exchange sSAPT0                16.41879420 [mEh]      10.30294891 [kcal/mol]      43.10753824 [kJ/mol]
    Induction sSAPT0               -4.56465850 [mEh]      -2.86436645 [kcal/mol]     -11.98450924 [kJ/mol]
    Dispersion sSAPT0              -7.99535346 [mEh]      -5.01716005 [kcal/mol]     -20.99179763 [kJ/mol]
  Total sSAPT0                    -11.25395734 [mEh]      -7.06196485 [kcal/mol]     -29.54726091 [kJ/mol]
  --------------------------------------------------------------------------------------------------------

*** Psi4 exiting successfully. Buy a developer a beer!
