                               Psi4 1.9 release

  ==> Input File <==

--------------------------------------------------------------------------
MEMORY 10 GB

molecule dimer {
0 1
C    1.486325   1.109248  -0.165162
C    1.979991  -0.306914  -0.021338
O    3.384545  -0.389185   0.086824
H    3.660768   0.174145   0.813902
H    0.400772   1.120925  -0.279330
H    1.940906   1.590274  -1.033718
H    1.739840   1.701798   0.719820
H    1.712261  -0.891383  -0.905498
H    1.486927  -0.789242   0.834980
--
0 1
C   -2.767575   0.939875   0.100714
C   -2.657108  -0.557816   0.055521
O   -1.297474  -0.884985  -0.131992
H   -1.201066  -1.838506  -0.169116
H   -3.802784   1.250850   0.248461
H   -2.405502   1.377104  -0.831984
H   -2.165941   1.341549   0.918613
H   -3.272795  -0.957360  -0.762914
H   -3.039755  -0.993159   0.989710

units ang
no_reorient
no_com
symmetry c1
}

set {
basis        aug-cc-pVTZ
scf_type     df
}

energy("sapt2+")
--------------------------------------------------------------------------

  //              Dimer HF             //
    Molecular point group: c1
  Charge       = 0
  Multiplicity = 1
  Basis Set: AUG-CC-PVTZ
    Blend: AUG-CC-PVTZ
  Basis Set: (AUG-CC-PVTZ AUX)
    Blend: AUG-CC-PVTZ-JKFIT
  @DF-RHF Final Energy:  -308.29035718615819
    Total Energy =                       -308.2903571861581895
 Dipole X            :         -1.1138764           -0.0000057           -1.1138821
 Dipole Y            :         -0.0452220           -0.0000132           -0.0452352
 Dipole Z            :          0.4171395           -0.0000151            0.4171244
 Magnitude           :                                                    1.1902824
  //            Monomer A HF           //
    Molecular point group: c1
  Multiplicity = 1
  Basis Set: AUG-CC-PVTZ
    Blend: AUG-CC-PVTZ
  Basis Set: (AUG-CC-PVTZ AUX)
    Blend: AUG-CC-PVTZ-JKFIT
  @DF-RHF Final Energy:  -154.14500706925944
    Total Energy =                       -154.1450070692594352
  //            Monomer B HF           //
    Molecular point group: c1

    Geometry (in Angstrom), charge = 0, multiplicity = 1:

       Center              X                  Y                   Z               Mass
    ------------   -----------------  -----------------  -----------------  -----------------
      Gh(C)           1.486325000000     1.109248000000    -0.165162000000    12.000000000000
      Gh(C)           1.979991000000    -0.306914000000    -0.021338000000    12.000000000000
      Gh(O)           3.384545000000    -0.389185000000     0.086824000000    15.994914619570
      Gh(H)           3.660768000000     0.174145000000     0.813902000000     1.007825032230
      Gh(H)           0.400772000000     1.120925000000    -0.279330000000     1.007825032230
      Gh(H)           1.940906000000     1.590274000000    -1.033718000000     1.007825032230
      Gh(H)           1.739840000000     1.701798000000     0.719820000000     1.007825032230
      Gh(H)           1.712261000000    -0.891383000000    -0.905498000000     1.007825032230
      Gh(H)           1.486927000000    -0.789242000000     0.834980000000     1.007825032230
         C           -2.767575000000     0.939875000000     0.100714000000    12.000000000000
         C           -2.657108000000    -0.557816000000     0.055521000000    12.000000000000
         O           -1.297474000000    -0.884985000000    -0.131992000000    15.994914619570
         H           -1.201066000000    -1.838506000000    -0.169116000000     1.007825032230
         H           -3.802784000000     1.250850000000     0.248461000000     1.007825032230
         H           -2.405502000000     1.377104000000    -0.831984000000     1.007825032230
         H           -2.165941000000     1.341549000000     0.918613000000     1.007825032230
         H           -3.272795000000    -0.957360000000    -0.762914000000     1.007825032230
         H           -3.039755000000    -0.993159000000     0.989710000000     1.007825032230

  Charge       = 0
  Multiplicity = 1
  Basis Set: AUG-CC-PVTZ
    Blend: AUG-CC-PVTZ
  Basis Set: (AUG-CC-PVTZ AUX)
    Blend: AUG-CC-PVTZ-JKFIT

    Orbital Energies [Eh]
    ---------------------

    Doubly Occupied:

       1A    -20.555708     2A    -11.273591     3A    -11.210670
       4A     -1.361886     5A     -1.014050     6A     -0.833351
       7A     -0.703642     8A     -0.645737     9A     -0.573697
      10A     -0.533529    11A     -0.524179    12A     -0.488904
      13A     -0.440107

  @DF-RHF Final Energy:  -154.14567163353047

   => Energetics <=

    Nuclear Repulsion Energy =             82.2821515826786509
    One-Electron Energy =                -372.5375435045334598
    Two-Electron Energy =                 136.1097202883243540
    Total Energy =                       -154.1456716335304691
 Dipole X            :        110.6480735         -111.1456272           -0.4975537
 Dipole Y            :          8.2822686           -8.7060590           -0.4237903
 Dipole Z            :         -0.4639714            0.5182461            0.0542747
 Magnitude           :                                                    0.6558229

    SAPT Results
  --------------------------------------------------------------------------------------------------------
    Electrostatics                 -2.71312562 [mEh]      -1.70251203 [kcal/mol]      -7.12331035 [kJ/mol]
      Elst10,r                     -2.56990206 [mEh]      -1.61263789 [kcal/mol]      -6.74727694 [kJ/mol]
      Elst12,r                     -0.14322356 [mEh]      -0.08987414 [kcal/mol]      -0.37603341 [kJ/mol]

    Exchange                        4.16149490 [mEh]       2.61137747 [kcal/mol]      10.92600335 [kJ/mol]
      Exch10                        3.57814811 [mEh]       2.24532184 [kcal/mol]       9.39442656 [kJ/mol]
      Exch10(S^2)                   3.57009666 [mEh]       2.24026948 [kcal/mol]       9.37328749 [kJ/mol]
      Exch11(S^2)                   0.00675340 [mEh]       0.00423782 [kcal/mol]       0.01773104 [kJ/mol]
      Exch12(S^2)                   0.57659339 [mEh]       0.36181782 [kcal/mol]       1.51384574 [kJ/mol]

    Induction                      -0.73725017 [mEh]      -0.46263146 [kcal/mol]      -1.93565004 [kJ/mol]
      Ind20,r                      -1.08592177 [mEh]      -0.68142620 [kcal/mol]      -2.85108722 [kJ/mol]
      Ind22                        -0.12673771 [mEh]      -0.07952912 [kcal/mol]      -0.33274982 [kJ/mol]
      Exch-Ind20,r                  0.65304677 [mEh]       0.40979303 [kcal/mol]       1.71457405 [kJ/mol]
      Exch-Ind22                    0.07621696 [mEh]       0.04782686 [kcal/mol]       0.20010759 [kJ/mol]
      delta HF,r (2)               -0.25385440 [mEh]      -0.15929604 [kcal/mol]      -0.66649465 [kJ/mol]

    Dispersion                     -4.10281128 [mEh]      -2.57455295 [kcal/mol]     -10.77192954 [kJ/mol]
      Disp20                       -4.09382700 [mEh]      -2.56891523 [kcal/mol]     -10.74834130 [kJ/mol]
      Disp21                        0.19729291 [mEh]       0.12380317 [kcal/mol]       0.51799246 [kJ/mol]
      Disp22 (SDQ)                  0.07186213 [mEh]       0.04509417 [kcal/mol]       0.18867399 [kJ/mol]
      Disp22 (T)                   -0.60659031 [mEh]      -0.38064117 [kcal/mol]      -1.59260264 [kJ/mol]
      Est. Disp22 (T)              -0.67680922 [mEh]      -0.42470420 [kcal/mol]      -1.77696237 [kJ/mol]
      Exch-Disp20                   0.39866990 [mEh]       0.25016914 [kcal/mol]       1.04670768 [kJ/mol]

  Total HF                          0.32151663 [mEh]       0.20175473 [kcal/mol]       0.84414180 [kJ/mol]
  Total SAPT0                      -3.37364047 [mEh]      -2.11699135 [kcal/mol]      -8.85749183 [kJ/mol]
  Total SAPT2                      -2.98403799 [mEh]      -1.87251211 [kcal/mol]      -7.83459067 [kJ/mol]
  Total SAPT2+                     -3.39169218 [mEh]      -2.12831897 [kcal/mol]      -8.90488659 [kJ/mol]

  Special recipe for scaled SAPT0 (see Manual):
    Electrostatics sSAPT0          -2.56990206 [mEh]      -1.61263789 [kcal/mol]      -6.74727694 [kJ/mol]
    Exchange sSAPT0                 3.57814811 [mEh]       2.24532184 [kcal/mol]       9.39442656 [kJ/mol]
    Induction sSAPT0               -0.68230110 [mEh]      -0.42815040 [kcal/mol]      -1.79138128 [kJ/mol]
    Dispersion sSAPT0              -3.69245372 [mEh]      -2.31704969 [kcal/mol]      -9.69453590 [kJ/mol]
  Total sSAPT0                     -3.36650877 [mEh]      -2.11251615 [kcal/mol]      -8.83876756 [kJ/mol]
  --------------------------------------------------------------------------------------------------------

*** Psi4 exiting successfully. Buy a developer a beer!
