                               Psi4 1.9 release

  ==> Input File <==

--------------------------------------------------------------------------
MEMORY 10 GB

molecule dimer {
0 1
C    1.502411   0.470249   1.128803
C    1.541590  -0.013762  -0.297605
O    2.831098  -0.403882  -0.711589
H    3.165751  -1.047282  -0.081888
H    0.501517   0.824892   1.383414
H    2.212611   1.286431   1.276548
H    1.765583  -0.335546   1.821937
H    1.234293   0.786294  -0.976709
H    0.819922  -0.834283  -0.436808
--
0 1
C   -2.117320  -1.058556   0.527634
C   -2.064049  -0.088615  -0.618780
O   -1.636939   1.158029  -0.112424
H   -1.616464   1.798123  -0.826452
H   -2.451391  -2.041147   0.191152
H   -2.805181  -0.702538   1.296587
H   -1.129934  -1.167136   0.982792
H   -3.054484  -0.002167  -1.087464
H   -1.371285  -0.454716  -1.391316

units ang
no_reorient
no_com
symmetry c1
}

set {
basis        aug-cc-pVTZ
scf_type     df
}

energy("sapt2+")
--------------------------------------------------------------------------

  //              Dimer HF             //
    Molecular point group: c1
  Charge       = 0
  Multiplicity = 1
  Basis Set: AUG-CC-PVTZ
    Blend: AUG-CC-PVTZ
  Basis Set: (AUG-CC-PVTZ AUX)
    Blend: AUG-CC-PVTZ-JKFIT
  @DF-RHF Final Energy:  -308.28851718358590
    Total Energy =                       -308.2885171835858955
 Dipole X            :         -0.6347079            0.0000038           -0.6347042
 Dipole Y            :         -0.2774636           -0.0000057           -0.2774693
 Dipole Z            :         -0.0252517            0.0000019           -0.0252498
 Magnitude           :                                                    0.6931638
  //            Monomer A HF           //
    Molecular point group: c1
  Multiplicity = 1
  Basis Set: AUG-CC-PVTZ
    Blend: AUG-CC-PVTZ
  Basis Set: (AUG-CC-PVTZ AUX)
    Blend: AUG-CC-PVTZ-JKFIT
  @DF-RHF Final Energy:  -154.14499597274946
    Total Energy =                       -154.1449959727494559
  //            Monomer B HF           //
    Molecular point group: c1

    Geometry (in Angstrom), charge = 0, multiplicity = 1:

       Center              X                  Y                   Z               Mass
    ------------   -----------------  -----------------  -----------------  -----------------
      Gh(C)           1.502411000000     0.470249000000     1.128803000000    12.000000000000
      Gh(C)           1.541590000000    -0.013762000000    -0.297605000000    12.000000000000
      Gh(O)           2.831098000000    -0.403882000000    -0.711589000000    15.994914619570
      Gh(H)           3.165751000000    -1.047282000000    -0.081888000000     1.007825032230
      Gh(H)           0.501517000000     0.824892000000     1.383414000000     1.007825032230
      Gh(H)           2.212611000000     1.286431000000     1.276548000000     1.007825032230
      Gh(H)           1.765583000000    -0.335546000000     1.821937000000     1.007825032230
      Gh(H)           1.234293000000     0.786294000000    -0.976709000000     1.007825032230
      Gh(H)           0.819922000000    -0.834283000000    -0.436808000000     1.007825032230
         C           -2.117320000000    -1.058556000000     0.527634000000    12.000000000000
         C           -2.064049000000    -0.088615000000    -0.618780000000    12.000000000000
         O           -1.636939000000     1.158029000000    -0.112424000000    15.994914619570
         H           -1.616464000000     1.798123000000    -0.826452000000     1.007825032230
         H           -2.451391000000    -2.041147000000     0.191152000000     1.007825032230
         H           -2.805181000000    -0.702538000000     1.296587000000     1.007825032230
         H           -1.129934000000    -1.167136000000     0.982792000000     1.007825032230
         H           -3.054484000000    -0.002167000000    -1.087464000000     1.007825032230
         H           -1.371285000000    -0.454716000000    -1.391316000000     1.007825032230

  Charge       = 0
  Multiplicity = 1
  Basis Set: AUG-CC-PVTZ
    Blend: AUG-CC-PVTZ
  Basis Set: (AUG-CC-PVTZ AUX)
    Blend: AUG-CC-PVTZ-JKFIT

    Orbital Energies [Eh]
    ---------------------

    Doubly Occupied:

       1A    -20.555709     2A    -11.273777     3A    -11.210819
       4A     -1.361706     5A     -1.013985     6A     -0.833230
       7A     -0.703311     8A     -0.645582     9A     -0.573779
      10A     -0.533545    11A     -0.524123    12A     -0.489086
      13A     -0.440138

  @DF-RHF Final Energy:  -154.14566977677532

   => Energetics <=

    Nuclear Repulsion Energy =             82.2561295787754432
    One-Electron Energy =                -372.4860142484583321
    Two-Electron Energy =                 136.0842148929075393
    Total Energy =                       -154.1456697767753212
 Dipole X            :         95.4792889          -95.6436974           -0.1644085
 Dipole Y            :          0.2219725           -0.3559772           -0.1340046
 Dipole Z            :          3.6882579           -4.3104067           -0.6221488
 Magnitude           :                                                    0.6573101

    SAPT Results
  --------------------------------------------------------------------------------------------------------
    Electrostatics                 -3.59977241 [mEh]      -2.25889129 [kcal/mol]      -9.45120115 [kJ/mol]
      Elst10,r                     -3.15550920 [mEh]      -1.98011191 [kcal/mol]      -8.28478825 [kJ/mol]
      Elst12,r                     -0.44426321 [mEh]      -0.27877937 [kcal/mol]      -1.16641290 [kJ/mol]

    Exchange                        7.06363333 [mEh]       4.43249683 [kcal/mol]      18.54556675 [kJ/mol]
      Exch10                        6.15244407 [mEh]       3.86071694 [kcal/mol]      16.15323968 [kJ/mol]
      Exch10(S^2)                   6.13866957 [mEh]       3.85207331 [kcal/mol]      16.11707474 [kJ/mol]
      Exch11(S^2)                   0.09963410 [mEh]       0.06252134 [kcal/mol]       0.26158930 [kJ/mol]
      Exch12(S^2)                   0.81155516 [mEh]       0.50925855 [kcal/mol]       2.13073777 [kJ/mol]

    Induction                      -0.91838639 [mEh]      -0.57629616 [kcal/mol]      -2.41122313 [kJ/mol]
      Ind20,r                      -1.56205734 [mEh]      -0.98020578 [kcal/mol]      -4.10118099 [kJ/mol]
      Ind22                        -0.25287299 [mEh]      -0.15868020 [kcal/mol]      -0.66391794 [kJ/mol]
      Exch-Ind20,r                  1.12954267 [mEh]       0.70879872 [kcal/mol]       2.96561386 [kJ/mol]
      Exch-Ind22                    0.18285553 [mEh]       0.11474358 [kcal/mol]       0.48008714 [kJ/mol]
      delta HF,r (2)               -0.41585426 [mEh]      -0.26095249 [kcal/mol]      -1.09182521 [kJ/mol]

    Dispersion                     -6.50441200 [mEh]      -4.08158015 [kcal/mol]     -17.07733136 [kJ/mol]
      Disp20                       -6.59943586 [mEh]      -4.14120852 [kcal/mol]     -17.32681646 [kJ/mol]
      Disp21                        0.30757460 [mEh]       0.19300598 [kcal/mol]       0.80753700 [kJ/mol]
      Disp22 (SDQ)                  0.14871083 [mEh]       0.09331746 [kcal/mol]       0.39044023 [kJ/mol]
      Disp22 (T)                   -0.93297692 [mEh]      -0.58545186 [kcal/mol]      -2.44953057 [kJ/mol]
      Est. Disp22 (T)              -1.04150583 [mEh]      -0.65355478 [kcal/mol]      -2.73447318 [kJ/mol]
      Exch-Disp20                   0.68024425 [mEh]       0.42685971 [kcal/mol]       1.78598104 [kJ/mol]

  Total HF                          2.14856594 [mEh]       1.34824548 [kcal/mol]       5.64105910 [kJ/mol]
  Total SAPT0                      -3.77062567 [mEh]      -2.36610333 [kcal/mol]      -9.89977632 [kJ/mol]
  Total SAPT2                      -3.37371707 [mEh]      -2.11703943 [kcal/mol]      -8.85769296 [kJ/mol]
  Total SAPT2+                     -3.95893747 [mEh]      -2.48427077 [kcal/mol]     -10.39418890 [kJ/mol]

  Special recipe for scaled SAPT0 (see Manual):
    Electrostatics sSAPT0          -3.15550920 [mEh]      -1.98011191 [kcal/mol]      -8.28478825 [kJ/mol]
    Exchange sSAPT0                 6.15244407 [mEh]       3.86071694 [kcal/mol]      16.15323968 [kJ/mol]
    Induction sSAPT0               -0.84074815 [mEh]      -0.52757743 [kcal/mol]      -2.20738397 [kJ/mol]
    Dispersion sSAPT0              -5.91460214 [mEh]      -3.71146888 [kcal/mol]     -15.52878579 [kJ/mol]
  Total sSAPT0                     -3.75841542 [mEh]      -2.35844128 [kcal/mol]      -9.86771833 [kJ/mol]
  --------------------------------------------------------------------------------------------------------

*** Psi4 exiting successfully. Buy a developer a beer!
