                               Psi4 1.9 release

  ==> Input File <==

--------------------------------------------------------------------------
MEMORY 10 GB

molecule dimer {
0 1
C   -2.155164  -0.955565   0.208662
C   -1.631256   0.226947  -0.556077
O   -1.450840   1.288410   0.360837
H   -1.083716   2.042894  -0.104265
H   -2.299215  -1.811793  -0.452297
H   -3.109149  -0.718332   0.683083
H   -1.453477  -1.239614   0.996988
H   -2.341754   0.510467  -1.345522
H   -0.682472  -0.038588  -1.043697
--
0 1
C    2.155265   0.955548  -0.208559
C    1.631287  -0.226997   0.556078
O    1.450717  -1.288342  -0.360942
H    1.083422  -2.042797   0.104070
H    2.299530   1.811659   0.452504
H    1.453509   1.239816  -0.996743
H    3.109152   0.718241  -0.683140
H    0.682556   0.038576   1.043780
H    2.341799  -0.510676   1.345454

units ang
no_reorient
no_com
symmetry c1
}

set {
basis        aug-cc-pVTZ
scf_type     df
}

energy("sapt2+")
--------------------------------------------------------------------------

  //              Dimer HF             //
    Molecular point group: c1
  Charge       = 0
  Multiplicity = 1
  Basis Set: AUG-CC-PVTZ
    Blend: AUG-CC-PVTZ
  Basis Set: (AUG-CC-PVTZ AUX)
    Blend: AUG-CC-PVTZ-JKFIT
  @DF-RHF Final Energy:  -308.28886135306908
    Total Energy =                       -308.2888613530690805
 Dipole X            :         -0.0000154           -0.0000132           -0.0000287
 Dipole Y            :         -0.0000118           -0.0000094           -0.0000212
 Dipole Z            :         -0.0000153           -0.0000019           -0.0000172
 Magnitude           :                                                    0.0000396
  //            Monomer A HF           //
    Molecular point group: c1
  Multiplicity = 1
  Basis Set: AUG-CC-PVTZ
    Blend: AUG-CC-PVTZ
  Basis Set: (AUG-CC-PVTZ AUX)
    Blend: AUG-CC-PVTZ-JKFIT
  @DF-RHF Final Energy:  -154.14559849329729
    Total Energy =                       -154.1455984932972854
  //            Monomer B HF           //
    Molecular point group: c1

    Geometry (in Angstrom), charge = 0, multiplicity = 1:

       Center              X                  Y                   Z               Mass
    ------------   -----------------  -----------------  -----------------  -----------------
      Gh(C)          -2.155164000000    -0.955565000000     0.208662000000    12.000000000000
      Gh(C)          -1.631256000000     0.226947000000    -0.556077000000    12.000000000000
      Gh(O)          -1.450840000000     1.288410000000     0.360837000000    15.994914619570
      Gh(H)          -1.083716000000     2.042894000000    -0.104265000000     1.007825032230
      Gh(H)          -2.299215000000    -1.811793000000    -0.452297000000     1.007825032230
      Gh(H)          -3.109149000000    -0.718332000000     0.683083000000     1.007825032230
      Gh(H)          -1.453477000000    -1.239614000000     0.996988000000     1.007825032230
      Gh(H)          -2.341754000000     0.510467000000    -1.345522000000     1.007825032230
      Gh(H)          -0.682472000000    -0.038588000000    -1.043697000000     1.007825032230
         C            2.155265000000     0.955548000000    -0.208559000000    12.000000000000
         C            1.631287000000    -0.226997000000     0.556078000000    12.000000000000
         O            1.450717000000    -1.288342000000    -0.360942000000    15.994914619570
         H            1.083422000000    -2.042797000000     0.104070000000     1.007825032230
         H            2.299530000000     1.811659000000     0.452504000000     1.007825032230
         H            1.453509000000     1.239816000000    -0.996743000000     1.007825032230
         H            3.109152000000     0.718241000000    -0.683140000000     1.007825032230
         H            0.682556000000     0.038576000000     1.043780000000     1.007825032230
         H            2.341799000000    -0.510676000000     1.345454000000     1.007825032230

  Charge       = 0
  Multiplicity = 1
  Basis Set: AUG-CC-PVTZ
    Blend: AUG-CC-PVTZ
  Basis Set: (AUG-CC-PVTZ AUX)
    Blend: AUG-CC-PVTZ-JKFIT

    Orbital Energies [Eh]
    ---------------------

    Doubly Occupied:

       1A    -20.555824     2A    -11.273921     3A    -11.210779
       4A     -1.360917     5A     -1.014141     6A     -0.832962
       7A     -0.702570     8A     -0.645809     9A     -0.573659
      10A     -0.533351    11A     -0.523493    12A     -0.489174
      13A     -0.440899

  @DF-RHF Final Energy:  -154.14559855488341

   => Energetics <=

    Nuclear Repulsion Energy =             82.2234315112223868
    One-Electron Energy =                -372.4230604734509029
    Two-Electron Energy =                 136.0540304073451239
    Total Energy =                       -154.1455985548834065
 Dipole X            :        -85.7378797           85.5951751           -0.1427047
 Dipole Y            :          8.8402594           -8.8450729           -0.0048135
 Dipole Z            :         -0.2310075            0.8758937            0.6448862
 Magnitude           :                                                    0.6605043

    SAPT Results
  --------------------------------------------------------------------------------------------------------
    Electrostatics                 -4.65643335 [mEh]      -2.92195604 [kcal/mol]     -12.22546407 [kJ/mol]
      Elst10,r                     -4.16360654 [mEh]      -2.61270255 [kcal/mol]     -10.93154747 [kJ/mol]
      Elst12,r                     -0.49282681 [mEh]      -0.30925349 [kcal/mol]      -1.29391660 [kJ/mol]

    Exchange                        8.92817989 [mEh]       5.60251747 [kcal/mol]      23.44093308 [kJ/mol]
      Exch10                        7.69179253 [mEh]       4.82667268 [kcal/mol]      20.19479851 [kJ/mol]
      Exch10(S^2)                   7.67408133 [mEh]       4.81555874 [kcal/mol]      20.14829775 [kJ/mol]
      Exch11(S^2)                   0.08560085 [mEh]       0.05371535 [kcal/mol]       0.22474501 [kJ/mol]
      Exch12(S^2)                   1.15078651 [mEh]       0.72212943 [kcal/mol]       3.02138955 [kJ/mol]

    Induction                      -1.27703917 [mEh]      -0.80135418 [kcal/mol]      -3.35286588 [kJ/mol]
      Ind20,r                      -2.09602500 [mEh]      -1.31527555 [kcal/mol]      -5.50311289 [kJ/mol]
      Ind22                        -0.29048984 [mEh]      -0.18228513 [kcal/mol]      -0.76268097 [kJ/mol]
      Exch-Ind20,r                  1.48596810 [mEh]       0.93245906 [kcal/mol]       3.90140872 [kJ/mol]
      Exch-Ind22                    0.20594155 [mEh]       0.12923027 [kcal/mol]       0.54069946 [kJ/mol]
      delta HF,r (2)               -0.58243398 [mEh]      -0.36548284 [kcal/mol]      -1.52918020 [kJ/mol]

    Dispersion                     -7.86695367 [mEh]      -4.93658796 [kcal/mol]     -20.65468403 [kJ/mol]
      Disp20                       -8.01924962 [mEh]      -5.03215511 [kcal/mol]     -21.05453697 [kJ/mol]
      Disp21                        0.45206768 [mEh]       0.28367675 [kcal/mol]       1.18690352 [kJ/mol]
      Disp22 (SDQ)                  0.12701340 [mEh]       0.07970211 [kcal/mol]       0.33347363 [kJ/mol]
      Disp22 (T)                   -1.15849728 [mEh]      -0.72696802 [kcal/mol]      -3.04163420 [kJ/mol]
      Est. Disp22 (T)              -1.29190144 [mEh]      -0.81068039 [kcal/mol]      -3.39188675 [kJ/mol]
      Exch-Disp20                   0.86511631 [mEh]       0.54286868 [kcal/mol]       2.27136255 [kJ/mol]

  Total HF                          2.33569511 [mEh]       1.46567081 [kcal/mol]       6.13236667 [kJ/mol]
  Total SAPT0                      -4.81843820 [mEh]      -3.02361562 [kcal/mol]     -12.65080775 [kJ/mol]
  Total SAPT2                      -4.15942594 [mEh]      -2.61007918 [kcal/mol]     -10.92057129 [kJ/mol]
  Total SAPT2+                     -4.87224630 [mEh]      -3.05738071 [kcal/mol]     -12.79208090 [kJ/mol]

  Special recipe for scaled SAPT0 (see Manual):
    Electrostatics sSAPT0          -4.16360654 [mEh]      -2.61270255 [kcal/mol]     -10.93154747 [kJ/mol]
    Exchange sSAPT0                 7.69179253 [mEh]       4.82667268 [kcal/mol]      20.19479851 [kJ/mol]
    Induction sSAPT0               -1.18217861 [mEh]      -0.74182828 [kcal/mol]      -3.10380950 [kJ/mol]
    Dispersion sSAPT0              -7.14812961 [mEh]      -4.48551905 [kcal/mol]     -18.76741170 [kJ/mol]
  Total sSAPT0                     -4.80212222 [mEh]      -3.01337719 [kcal/mol]     -12.60797016 [kJ/mol]
  --------------------------------------------------------------------------------------------------------

*** Psi4 exiting successfully. Buy a developer a beer!
