                               Psi4 1.9 release

  ==> Input File <==

--------------------------------------------------------------------------
MEMORY 10 GB

molecule dimer {
0 1
C   -3.007846   0.331705   0.268325
C   -1.559751  -0.063793   0.358991
O   -1.089212  -0.338140  -0.932978
H   -0.188968  -0.686754  -0.853180
H   -3.415188   0.565167   1.253638
H   -3.595707  -0.477511  -0.168782
H   -3.120447   1.210167  -0.369948
H   -1.449816  -0.941703   1.015791
H   -0.981545   0.750973   0.828220
--
0 1
C    1.991645   1.192966  -0.303845
C    2.064585  -0.008651   0.594397
O    1.552021  -1.121729  -0.121357
H    1.618683  -1.910531   0.420765
H    2.371219   2.078479   0.207582
H    0.960239   1.383869  -0.609335
H    2.586189   1.032436  -1.204809
H    1.479341   0.160659   1.509069
H    3.101735  -0.199658   0.898460

units ang
no_reorient
no_com
symmetry c1
}

set {
basis        aug-cc-pVTZ
scf_type     df
}

energy("sapt2+")
--------------------------------------------------------------------------

  //              Dimer HF             //
    Molecular point group: c1
  Charge       = 0
  Multiplicity = 1
  Basis Set: AUG-CC-PVTZ
    Blend: AUG-CC-PVTZ
  Basis Set: (AUG-CC-PVTZ AUX)
    Blend: AUG-CC-PVTZ-JKFIT
  @DF-RHF Final Energy:  -308.29363278843823
    Total Energy =                       -308.2936327884382308
 Dipole X            :          0.8272578            0.0000094            0.8272673
 Dipole Y            :         -0.1193238            0.0000057           -0.1193181
 Dipole Z            :          1.1492939           -0.0000019            1.1492920
 Magnitude           :                                                    1.4210841
  //            Monomer A HF           //
    Molecular point group: c1
  Multiplicity = 1
  Basis Set: AUG-CC-PVTZ
    Blend: AUG-CC-PVTZ
  Basis Set: (AUG-CC-PVTZ AUX)
    Blend: AUG-CC-PVTZ-JKFIT
  @DF-RHF Final Energy:  -154.14494648467078
    Total Energy =                       -154.1449464846707826
  //            Monomer B HF           //
    Molecular point group: c1

    Geometry (in Angstrom), charge = 0, multiplicity = 1:

       Center              X                  Y                   Z               Mass
    ------------   -----------------  -----------------  -----------------  -----------------
      Gh(C)          -3.007846000000     0.331705000000     0.268325000000    12.000000000000
      Gh(C)          -1.559751000000    -0.063793000000     0.358991000000    12.000000000000
      Gh(O)          -1.089212000000    -0.338140000000    -0.932978000000    15.994914619570
      Gh(H)          -0.188968000000    -0.686754000000    -0.853180000000     1.007825032230
      Gh(H)          -3.415188000000     0.565167000000     1.253638000000     1.007825032230
      Gh(H)          -3.595707000000    -0.477511000000    -0.168782000000     1.007825032230
      Gh(H)          -3.120447000000     1.210167000000    -0.369948000000     1.007825032230
      Gh(H)          -1.449816000000    -0.941703000000     1.015791000000     1.007825032230
      Gh(H)          -0.981545000000     0.750973000000     0.828220000000     1.007825032230
         C            1.991645000000     1.192966000000    -0.303845000000    12.000000000000
         C            2.064585000000    -0.008651000000     0.594397000000    12.000000000000
         O            1.552021000000    -1.121729000000    -0.121357000000    15.994914619570
         H            1.618683000000    -1.910531000000     0.420765000000     1.007825032230
         H            2.371219000000     2.078479000000     0.207582000000     1.007825032230
         H            0.960239000000     1.383869000000    -0.609335000000     1.007825032230
         H            2.586189000000     1.032436000000    -1.204809000000     1.007825032230
         H            1.479341000000     0.160659000000     1.509069000000     1.007825032230
         H            3.101735000000    -0.199658000000     0.898460000000     1.007825032230

  Charge       = 0
  Multiplicity = 1
  Basis Set: AUG-CC-PVTZ
    Blend: AUG-CC-PVTZ
  Basis Set: (AUG-CC-PVTZ AUX)
    Blend: AUG-CC-PVTZ-JKFIT

    Orbital Energies [Eh]
    ---------------------

    Doubly Occupied:

       1A    -20.554650     2A    -11.274117     3A    -11.211343
       4A     -1.358196     5A     -1.014515     6A     -0.833683
       7A     -0.701011     8A     -0.645301     9A     -0.572215
      10A     -0.533517    11A     -0.524125    12A     -0.489706
      13A     -0.440625

  @DF-RHF Final Energy:  -154.14565815817130

   => Energetics <=

    Nuclear Repulsion Energy =             82.1215544040201166
    One-Electron Energy =                -372.2284158266429586
    Two-Electron Energy =                 135.9612032644515409
    Total Energy =                       -154.1456581581713010
 Dipole X            :        -92.0982433           92.3527185            0.2544752
 Dipole Y            :         -1.2769649            1.2799342            0.0029693
 Dipole Z            :         -3.1577291            3.7684692            0.6107401
 Magnitude           :                                                    0.6616418

    SAPT Results
  --------------------------------------------------------------------------------------------------------
    Electrostatics                -15.40846738 [mEh]      -9.66895926 [kcal/mol]     -40.45492554 [kJ/mol]
      Elst10,r                    -14.65308305 [mEh]      -9.19494844 [kcal/mol]     -38.47166425 [kJ/mol]
      Elst12,r                     -0.75538433 [mEh]      -0.47401082 [kcal/mol]      -1.98326128 [kJ/mol]

    Exchange                       19.01415419 [mEh]      11.93156189 [kcal/mol]      49.92165494 [kJ/mol]
      Exch10                       16.12194380 [mEh]      10.11667247 [kcal/mol]      42.32815762 [kJ/mol]
      Exch10(S^2)                  16.00662860 [mEh]      10.04431109 [kcal/mol]      42.02539759 [kJ/mol]
      Exch11(S^2)                   0.15373083 [mEh]       0.09646755 [kcal/mol]       0.40362024 [kJ/mol]
      Exch12(S^2)                   2.73847956 [mEh]       1.71842187 [kcal/mol]       7.18987709 [kJ/mol]

    Induction                      -5.00332007 [mEh]      -3.13963074 [kcal/mol]     -13.13621502 [kJ/mol]
      Ind20,r                      -6.75078719 [mEh]      -4.23618292 [kcal/mol]     -17.72418932 [kJ/mol]
      Ind22                        -1.32700757 [mEh]      -0.83270982 [kcal/mol]      -3.48405789 [kJ/mol]
      Exch-Ind20,r                  4.17505494 [mEh]       2.61988653 [kcal/mol]      10.96160524 [kJ/mol]
      Exch-Ind22                    0.82069385 [mEh]       0.51499316 [kcal/mol]       2.15473140 [kJ/mol]
      delta HF,r (2)               -1.92127410 [mEh]      -1.20561770 [kcal/mol]      -5.04430445 [kJ/mol]

    Dispersion                     -9.28519746 [mEh]      -5.82654937 [kcal/mol]     -24.37828257 [kJ/mol]
      Disp20                       -9.49742187 [mEh]      -5.95972220 [kcal/mol]     -24.93547770 [kJ/mol]
      Disp21                        0.51977546 [mEh]       0.32616403 [kcal/mol]       1.36467029 [kJ/mol]
      Disp22 (SDQ)                 -0.05544391 [mEh]      -0.03479158 [kcal/mol]      -0.14556796 [kJ/mol]
      Disp22 (T)                   -1.44452299 [mEh]      -0.90645186 [kcal/mol]      -3.79259459 [kJ/mol]
      Est. Disp22 (T)              -1.63250905 [mEh]      -1.02441490 [kcal/mol]      -4.28615193 [kJ/mol]
      Exch-Disp20                   1.38040191 [mEh]       0.86621528 [kcal/mol]       3.62424472 [kJ/mol]

  Total HF                         -3.02814560 [mEh]      -1.90019005 [kcal/mol]      -7.95039517 [kJ/mol]
  Total SAPT0                     -11.14516556 [mEh]      -6.99369698 [kcal/mol]     -29.26162815 [kJ/mol]
  Total SAPT2                      -9.51465322 [mEh]      -5.97053504 [kcal/mol]     -24.98071860 [kJ/mol]
  Total SAPT2+                    -10.68283072 [mEh]      -6.70357748 [kcal/mol]     -28.04776819 [kJ/mol]

  Special recipe for scaled SAPT0 (see Manual):
    Electrostatics sSAPT0         -14.65308305 [mEh]      -9.19494844 [kcal/mol]     -38.47166425 [kJ/mol]
    Exchange sSAPT0                16.12194380 [mEh]      10.11667247 [kcal/mol]      42.32815762 [kJ/mol]
    Induction sSAPT0               -4.40612073 [mEh]      -2.76488250 [kcal/mol]     -11.56826838 [kJ/mol]
    Dispersion sSAPT0              -8.08697038 [mEh]      -5.07465053 [kcal/mol]     -21.23233780 [kJ/mol]
  Total sSAPT0                    -11.02423036 [mEh]      -6.91780899 [kcal/mol]     -28.94411282 [kJ/mol]
  --------------------------------------------------------------------------------------------------------

*** Psi4 exiting successfully. Buy a developer a beer!
