                               Psi4 1.9 release

  ==> Input File <==

--------------------------------------------------------------------------
MEMORY 10 GB

molecule dimer {
0 1
C   -1.476290   0.806968   0.922453
C   -1.593018  -0.044148  -0.309222
O   -2.892465  -0.593232  -0.344560
H   -2.991527  -1.109285  -1.146434
H   -0.485127   1.260809   0.970032
H   -1.636387   0.205953   1.820445
H   -2.225971   1.600235   0.910180
H   -0.832252  -0.840551  -0.286052
H   -1.391080   0.562098  -1.203447
--
0 1
C    2.051333  -0.883548   0.822442
C    2.076079  -0.303211  -0.569232
O    1.686626   1.051826  -0.597927
H    2.286373   1.551607  -0.038142
H    2.325956  -1.940376   0.814701
H    1.055170  -0.788364   1.261253
H    2.758319  -0.362787   1.475107
H    1.365709  -0.828707  -1.214075
H    3.068906  -0.435747  -1.022318

units ang
no_reorient
no_com
symmetry c1
}

set {
basis        aug-cc-pVTZ
scf_type     df
}

energy("sapt2+")
--------------------------------------------------------------------------

  //              Dimer HF             //
    Molecular point group: c1
  Charge       = 0
  Multiplicity = 1
  Basis Set: AUG-CC-PVTZ
    Blend: AUG-CC-PVTZ
  Basis Set: (AUG-CC-PVTZ AUX)
    Blend: AUG-CC-PVTZ-JKFIT
  @DF-RHF Final Energy:  -308.28840764949888
    Total Energy =                       -308.2884076494988790
 Dipole X            :          1.0720062            0.0000019            1.0720081
 Dipole Y            :         -0.3271374            0.0000057           -0.3271318
 Dipole Z            :         -0.1020919            0.0000000           -0.1020919
 Magnitude           :                                                    1.1254508
  //            Monomer A HF           //
    Molecular point group: c1
  Multiplicity = 1
  Basis Set: AUG-CC-PVTZ
    Blend: AUG-CC-PVTZ
  Basis Set: (AUG-CC-PVTZ AUX)
    Blend: AUG-CC-PVTZ-JKFIT
  @DF-RHF Final Energy:  -154.14556627546716
    Total Energy =                       -154.1455662754671607
  //            Monomer B HF           //
    Molecular point group: c1

    Geometry (in Angstrom), charge = 0, multiplicity = 1:

       Center              X                  Y                   Z               Mass
    ------------   -----------------  -----------------  -----------------  -----------------
      Gh(C)          -1.476290000000     0.806968000000     0.922453000000    12.000000000000
      Gh(C)          -1.593018000000    -0.044148000000    -0.309222000000    12.000000000000
      Gh(O)          -2.892465000000    -0.593232000000    -0.344560000000    15.994914619570
      Gh(H)          -2.991527000000    -1.109285000000    -1.146434000000     1.007825032230
      Gh(H)          -0.485127000000     1.260809000000     0.970032000000     1.007825032230
      Gh(H)          -1.636387000000     0.205953000000     1.820445000000     1.007825032230
      Gh(H)          -2.225971000000     1.600235000000     0.910180000000     1.007825032230
      Gh(H)          -0.832252000000    -0.840551000000    -0.286052000000     1.007825032230
      Gh(H)          -1.391080000000     0.562098000000    -1.203447000000     1.007825032230
         C            2.051333000000    -0.883548000000     0.822442000000    12.000000000000
         C            2.076079000000    -0.303211000000    -0.569232000000    12.000000000000
         O            1.686626000000     1.051826000000    -0.597927000000    15.994914619570
         H            2.286373000000     1.551607000000    -0.038142000000     1.007825032230
         H            2.325956000000    -1.940376000000     0.814701000000     1.007825032230
         H            1.055170000000    -0.788364000000     1.261253000000     1.007825032230
         H            2.758319000000    -0.362787000000     1.475107000000     1.007825032230
         H            1.365709000000    -0.828707000000    -1.214075000000     1.007825032230
         H            3.068906000000    -0.435747000000    -1.022318000000     1.007825032230

  Charge       = 0
  Multiplicity = 1
  Basis Set: AUG-CC-PVTZ
    Blend: AUG-CC-PVTZ
  Basis Set: (AUG-CC-PVTZ AUX)
    Blend: AUG-CC-PVTZ-JKFIT

    Orbital Energies [Eh]
    ---------------------

    Doubly Occupied:

       1A    -20.555496     2A    -11.273515     3A    -11.218155
       4A     -1.362032     5A     -1.014270     6A     -0.848225
       7A     -0.687945     8A     -0.625794     9A     -0.610697
      10A     -0.544623    11A     -0.526178    12A     -0.480385
      13A     -0.443232

  @DF-RHF Final Energy:  -154.14517384954996

   => Energetics <=

    Nuclear Repulsion Energy =             82.1259493249965686
    One-Electron Energy =                -372.1611471861674545
    Two-Electron Energy =                 135.8900240116209375
    Total Energy =                       -154.1451738495499626
 Dipole X            :        -96.0851503           96.5988557            0.5137054
 Dipole Y            :          2.5483268           -2.8540912           -0.3057644
 Dipole Z            :          4.1383235           -3.7560763            0.3822472
 Magnitude           :                                                    0.7095759

    SAPT Results
  --------------------------------------------------------------------------------------------------------
    Electrostatics                 -2.97667853 [mEh]      -1.86789398 [kcal/mol]      -7.81526840 [kJ/mol]
      Elst10,r                     -2.58815573 [mEh]      -1.62409224 [kcal/mol]      -6.79520193 [kJ/mol]
      Elst12,r                     -0.38852280 [mEh]      -0.24380174 [kcal/mol]      -1.02006647 [kJ/mol]

    Exchange                        6.50027200 [mEh]       4.07898226 [kcal/mol]      17.06646178 [kJ/mol]
      Exch10                        5.68564569 [mEh]       3.56779653 [kcal/mol]      14.92766069 [kJ/mol]
      Exch10(S^2)                   5.67222514 [mEh]       3.55937501 [kcal/mol]      14.89242506 [kJ/mol]
      Exch11(S^2)                   0.10854921 [mEh]       0.06811566 [kcal/mol]       0.28499591 [kJ/mol]
      Exch12(S^2)                   0.70607711 [mEh]       0.44307007 [kcal/mol]       1.85380519 [kJ/mol]

    Induction                      -0.82203440 [mEh]      -0.51583437 [kcal/mol]      -2.15825102 [kJ/mol]
      Ind20,r                      -1.41057884 [mEh]      -0.88515159 [kcal/mol]      -3.70347424 [kJ/mol]
      Ind22                        -0.20916514 [mEh]      -0.13125311 [kcal/mol]      -0.54916300 [kJ/mol]
      Exch-Ind20,r                  1.02604463 [mEh]       0.64385273 [kcal/mol]       2.69387981 [kJ/mol]
      Exch-Ind22                    0.15214518 [mEh]       0.09547254 [kcal/mol]       0.39945711 [kJ/mol]
      delta HF,r (2)               -0.38048023 [mEh]      -0.23875495 [kcal/mol]      -0.99895070 [kJ/mol]

    Dispersion                     -6.18826806 [mEh]      -3.88319684 [kcal/mol]     -16.24729556 [kJ/mol]
      Disp20                       -6.28340792 [mEh]      -3.94289799 [kcal/mol]     -16.49708521 [kJ/mol]
      Disp21                        0.29451365 [mEh]       0.18481011 [kcal/mol]       0.77324549 [kJ/mol]
      Disp22 (SDQ)                  0.15818994 [mEh]       0.09926569 [kcal/mol]       0.41532764 [kJ/mol]
      Disp22 (T)                   -0.88161408 [mEh]      -0.55322118 [kcal/mol]      -2.31467744 [kJ/mol]
      Est. Disp22 (T)              -0.98523158 [mEh]      -0.61824215 [kcal/mol]      -2.58672516 [kJ/mol]
      Exch-Disp20                   0.62766784 [mEh]       0.39386751 [kcal/mol]       1.64794168 [kJ/mol]

  Total HF                          2.33247552 [mEh]       1.46365049 [kcal/mol]       6.12391363 [kJ/mol]
  Total SAPT0                      -3.32326456 [mEh]      -2.08538000 [kcal/mol]      -8.72522990 [kJ/mol]
  Total SAPT2                      -2.95418101 [mEh]      -1.85377657 [kcal/mol]      -7.75620117 [kJ/mol]
  Total SAPT2+                     -3.48670899 [mEh]      -2.18794292 [kcal/mol]      -9.15435320 [kJ/mol]

  Special recipe for scaled SAPT0 (see Manual):
    Electrostatics sSAPT0          -2.58815573 [mEh]      -1.62409224 [kcal/mol]      -6.79520193 [kJ/mol]
    Exchange sSAPT0                 5.68564569 [mEh]       3.56779653 [kcal/mol]      14.92766069 [kJ/mol]
    Induction sSAPT0               -0.75771430 [mEh]      -0.47547290 [kcal/mol]      -1.98937861 [kJ/mol]
    Dispersion sSAPT0              -5.65127432 [mEh]      -3.54622818 [kcal/mol]     -14.83741869 [kJ/mol]
  Total sSAPT0                     -3.31149866 [mEh]      -2.07799678 [kcal/mol]      -8.69433854 [kJ/mol]
  --------------------------------------------------------------------------------------------------------

*** Psi4 exiting successfully. Buy a developer a beer!
