                               Psi4 1.9 release

  ==> Input File <==

--------------------------------------------------------------------------
MEMORY 10 GB

molecule dimer {
0 1
C    1.931029   0.578330   0.958826
C    1.965727   0.223154  -0.499988
O    1.180761  -0.944252  -0.685860
H    1.221035  -1.219217  -1.603930
H    2.525477   1.472677   1.150060
H    2.332495  -0.239373   1.560047
H    0.905552   0.764576   1.285506
H    2.996705   0.041005  -0.829297
H    1.569906   1.051912  -1.104047
--
0 1
C   -1.746207   1.121099  -0.476950
C   -2.174033  -0.252033  -0.013091
O   -1.256421  -0.835427   0.871900
H   -0.431806  -0.990078   0.386917
H   -2.499550   1.576228  -1.124257
H   -0.809659   1.064234  -1.039748
H   -1.584424   1.779019   0.380020
H   -2.353642  -0.900384  -0.885059
H   -3.125905  -0.186473   0.522681

units ang
no_reorient
no_com
symmetry c1
}

set {
basis        aug-cc-pVTZ
scf_type     df
}

energy("sapt2+")
--------------------------------------------------------------------------

  //              Dimer HF             //
    Molecular point group: c1
  Charge       = 0
  Multiplicity = 1
  Basis Set: AUG-CC-PVTZ
    Blend: AUG-CC-PVTZ
  Basis Set: (AUG-CC-PVTZ AUX)
    Blend: AUG-CC-PVTZ-JKFIT
  @DF-RHF Final Energy:  -308.29312795300166
    Total Energy =                       -308.2931279530016582
 Dipole X            :          0.7121869           -0.0000000            0.7121869
 Dipole Y            :          0.4796129           -0.0000113            0.4796015
 Dipole Z            :         -1.1275663           -0.0000094           -1.1275758
 Magnitude           :                                                    1.4172702
  //            Monomer A HF           //
    Molecular point group: c1
  Multiplicity = 1
  Basis Set: AUG-CC-PVTZ
    Blend: AUG-CC-PVTZ
  Basis Set: (AUG-CC-PVTZ AUX)
    Blend: AUG-CC-PVTZ-JKFIT
  @DF-RHF Final Energy:  -154.14567909599083
    Total Energy =                       -154.1456790959908290
  //            Monomer B HF           //
    Molecular point group: c1

    Geometry (in Angstrom), charge = 0, multiplicity = 1:

       Center              X                  Y                   Z               Mass
    ------------   -----------------  -----------------  -----------------  -----------------
      Gh(C)           1.931029000000     0.578330000000     0.958826000000    12.000000000000
      Gh(C)           1.965727000000     0.223154000000    -0.499988000000    12.000000000000
      Gh(O)           1.180761000000    -0.944252000000    -0.685860000000    15.994914619570
      Gh(H)           1.221035000000    -1.219217000000    -1.603930000000     1.007825032230
      Gh(H)           2.525477000000     1.472677000000     1.150060000000     1.007825032230
      Gh(H)           2.332495000000    -0.239373000000     1.560047000000     1.007825032230
      Gh(H)           0.905552000000     0.764576000000     1.285506000000     1.007825032230
      Gh(H)           2.996705000000     0.041005000000    -0.829297000000     1.007825032230
      Gh(H)           1.569906000000     1.051912000000    -1.104047000000     1.007825032230
         C           -1.746207000000     1.121099000000    -0.476950000000    12.000000000000
         C           -2.174033000000    -0.252033000000    -0.013091000000    12.000000000000
         O           -1.256421000000    -0.835427000000     0.871900000000    15.994914619570
         H           -0.431806000000    -0.990078000000     0.386917000000     1.007825032230
         H           -2.499550000000     1.576228000000    -1.124257000000     1.007825032230
         H           -0.809659000000     1.064234000000    -1.039748000000     1.007825032230
         H           -1.584424000000     1.779019000000     0.380020000000     1.007825032230
         H           -2.353642000000    -0.900384000000    -0.885059000000     1.007825032230
         H           -3.125905000000    -0.186473000000     0.522681000000     1.007825032230

  Charge       = 0
  Multiplicity = 1
  Basis Set: AUG-CC-PVTZ
    Blend: AUG-CC-PVTZ
  Basis Set: (AUG-CC-PVTZ AUX)
    Blend: AUG-CC-PVTZ-JKFIT

    Orbital Energies [Eh]
    ---------------------

    Doubly Occupied:

       1A    -20.557512     2A    -11.273220     3A    -11.216817
       4A     -1.364042     5A     -1.012494     6A     -0.846235
       7A     -0.690735     8A     -0.627575     9A     -0.606466
      10A     -0.546223    11A     -0.526554    12A     -0.477992
      13A     -0.442434

  @DF-RHF Final Energy:  -154.14469458663069

   => Energetics <=

    Nuclear Repulsion Energy =             82.1543762638425079
    One-Electron Energy =                -372.2215393976179030
    Two-Electron Energy =                 135.9224685471447174
    Total Energy =                       -154.1446945866306919
 Dipole X            :         83.9702159          -83.8618767            0.1083392
 Dipole Y            :         -1.4624038            1.6507249            0.1883211
 Dipole Z            :         -4.9634885            4.3000869           -0.6634016
 Magnitude           :                                                    0.6980715

    SAPT Results
  --------------------------------------------------------------------------------------------------------
    Electrostatics                -15.67649654 [mEh]      -9.83715009 [kcal/mol]     -41.15863600 [kJ/mol]
      Elst10,r                    -15.03377406 [mEh]      -9.43383565 [kcal/mol]     -39.47116835 [kJ/mol]
      Elst12,r                     -0.64272248 [mEh]      -0.40331445 [kcal/mol]      -1.68746765 [kJ/mol]

    Exchange                       19.84600545 [mEh]      12.45355643 [kcal/mol]      52.10568012 [kJ/mol]
      Exch10                       16.92506539 [mEh]      10.62063888 [kcal/mol]      44.43675306 [kJ/mol]
      Exch10(S^2)                  16.80240750 [mEh]      10.54366989 [kcal/mol]      44.11471482 [kJ/mol]
      Exch11(S^2)                   0.19978804 [mEh]       0.12536888 [kcal/mol]       0.52454341 [kJ/mol]
      Exch12(S^2)                   2.72115202 [mEh]       1.70754867 [kcal/mol]       7.14438365 [kJ/mol]

    Induction                      -5.12131383 [mEh]      -3.21367295 [kcal/mol]     -13.44600761 [kJ/mol]
      Ind20,r                      -7.11655200 [mEh]      -4.46570380 [kcal/mol]     -18.68450471 [kJ/mol]
      Ind22                        -1.27799265 [mEh]      -0.80195250 [kcal/mol]      -3.35536925 [kJ/mol]
      Exch-Ind20,r                  4.46730776 [mEh]       2.80327794 [kcal/mol]      11.72891492 [kJ/mol]
      Exch-Ind22                    0.80224054 [mEh]       0.50341354 [kcal/mol]       2.10628224 [kJ/mol]
      delta HF,r (2)               -1.99631747 [mEh]      -1.25270813 [kcal/mol]      -5.24133080 [kJ/mol]

    Dispersion                     -9.89241778 [mEh]      -6.20758588 [kcal/mol]     -25.97253931 [kJ/mol]
      Disp20                      -10.24507311 [mEh]      -6.42888043 [kcal/mol]     -26.89843574 [kJ/mol]
      Disp21                        0.65402968 [mEh]       0.41040982 [kcal/mol]       1.71715470 [kJ/mol]
      Disp22 (SDQ)                 -0.05845248 [mEh]      -0.03667948 [kcal/mol]      -0.15346696 [kJ/mol]
      Disp22 (T)                   -1.54245662 [mEh]      -0.96790614 [kcal/mol]      -4.04971931 [kJ/mol]
      Est. Disp22 (T)              -1.74756874 [mEh]      -1.09661594 [kcal/mol]      -4.58824109 [kJ/mol]
      Exch-Disp20                   1.50464686 [mEh]       0.94418016 [kcal/mol]       3.95044978 [kJ/mol]

  Total HF                         -2.75427038 [mEh]      -1.72833076 [kcal/mol]      -7.23133589 [kJ/mol]
  Total SAPT0                     -11.49469663 [mEh]      -7.21303103 [kcal/mol]     -30.17932184 [kJ/mol]
  Total SAPT2                      -9.69223117 [mEh]      -6.08196688 [kcal/mol]     -25.44694944 [kJ/mol]
  Total SAPT2+                    -10.84422270 [mEh]      -6.80485248 [kcal/mol]     -28.47150279 [kJ/mol]

  Special recipe for scaled SAPT0 (see Manual):
    Electrostatics sSAPT0         -15.03377406 [mEh]      -9.43383565 [kcal/mol]     -39.47116835 [kJ/mol]
    Exchange sSAPT0                16.92506539 [mEh]      10.62063888 [kcal/mol]      44.43675306 [kJ/mol]
    Induction sSAPT0               -4.54701149 [mEh]      -2.85329279 [kcal/mol]     -11.93817703 [kJ/mol]
    Dispersion sSAPT0              -8.70723326 [mEh]      -5.46387136 [kcal/mol]     -22.86083778 [kJ/mol]
  Total sSAPT0                    -11.36295342 [mEh]      -7.13036092 [kcal/mol]     -29.83343010 [kJ/mol]
  --------------------------------------------------------------------------------------------------------

*** Psi4 exiting successfully. Buy a developer a beer!
