                               Psi4 1.9 release

  ==> Input File <==

--------------------------------------------------------------------------
MEMORY 10 GB

molecule dimer {
0 1
C   -1.812049  -1.313670  -0.315971
C   -1.974663  -0.127387   0.591559
O   -2.245825   0.998052  -0.214631
H   -2.351964   1.768926   0.346257
H   -1.584770  -2.214270   0.257177
H   -0.998441  -1.140479  -1.024415
H   -2.724973  -1.486699  -0.888315
H   -1.056825   0.024328   1.180454
H   -2.790662  -0.304727   1.306389
--
0 1
C    1.280549   1.136886  -0.192903
C    1.743025  -0.292312  -0.215131
O    3.051475  -0.339538   0.307722
H    3.364688  -1.245527   0.287422
H    0.264456   1.225750  -0.585081
H    1.944384   1.760507  -0.794390
H    1.294339   1.521489   0.829710
H    1.714899  -0.680289  -1.244464
H    1.058495  -0.918225   0.379202

units ang
no_reorient
no_com
symmetry c1
}

set {
basis        aug-cc-pVTZ
scf_type     df
}

energy("sapt2+")
--------------------------------------------------------------------------

  //              Dimer HF             //
    Molecular point group: c1
  Charge       = 0
  Multiplicity = 1
  Basis Set: AUG-CC-PVTZ
    Blend: AUG-CC-PVTZ
  Basis Set: (AUG-CC-PVTZ AUX)
    Blend: AUG-CC-PVTZ-JKFIT
  @DF-RHF Final Energy:  -308.28827008970927
    Total Energy =                       -308.2882700897092718
 Dipole X            :         -0.3794283           -0.0000038           -0.3794321
 Dipole Y            :         -0.4983912           -0.0000038           -0.4983950
 Dipole Z            :          0.4024025           -0.0000038            0.4023987
 Magnitude           :                                                    0.7445072
  //            Monomer A HF           //
    Molecular point group: c1
  Multiplicity = 1
  Basis Set: AUG-CC-PVTZ
    Blend: AUG-CC-PVTZ
  Basis Set: (AUG-CC-PVTZ AUX)
    Blend: AUG-CC-PVTZ-JKFIT
  @DF-RHF Final Energy:  -154.14564026494543
    Total Energy =                       -154.1456402649454276
  //            Monomer B HF           //
    Molecular point group: c1

    Geometry (in Angstrom), charge = 0, multiplicity = 1:

       Center              X                  Y                   Z               Mass
    ------------   -----------------  -----------------  -----------------  -----------------
      Gh(C)          -1.812049000000    -1.313670000000    -0.315971000000    12.000000000000
      Gh(C)          -1.974663000000    -0.127387000000     0.591559000000    12.000000000000
      Gh(O)          -2.245825000000     0.998052000000    -0.214631000000    15.994914619570
      Gh(H)          -2.351964000000     1.768926000000     0.346257000000     1.007825032230
      Gh(H)          -1.584770000000    -2.214270000000     0.257177000000     1.007825032230
      Gh(H)          -0.998441000000    -1.140479000000    -1.024415000000     1.007825032230
      Gh(H)          -2.724973000000    -1.486699000000    -0.888315000000     1.007825032230
      Gh(H)          -1.056825000000     0.024328000000     1.180454000000     1.007825032230
      Gh(H)          -2.790662000000    -0.304727000000     1.306389000000     1.007825032230
         C            1.280549000000     1.136886000000    -0.192903000000    12.000000000000
         C            1.743025000000    -0.292312000000    -0.215131000000    12.000000000000
         O            3.051475000000    -0.339538000000     0.307722000000    15.994914619570
         H            3.364688000000    -1.245527000000     0.287422000000     1.007825032230
         H            0.264456000000     1.225750000000    -0.585081000000     1.007825032230
         H            1.944384000000     1.760507000000    -0.794390000000     1.007825032230
         H            1.294339000000     1.521489000000     0.829710000000     1.007825032230
         H            1.714899000000    -0.680289000000    -1.244464000000     1.007825032230
         H            1.058495000000    -0.918225000000     0.379202000000     1.007825032230

  Charge       = 0
  Multiplicity = 1
  Basis Set: AUG-CC-PVTZ
    Blend: AUG-CC-PVTZ
  Basis Set: (AUG-CC-PVTZ AUX)
    Blend: AUG-CC-PVTZ-JKFIT

    Orbital Energies [Eh]
    ---------------------

    Doubly Occupied:

       1A    -20.556190     2A    -11.273840     3A    -11.211071
       4A     -1.362739     5A     -1.014049     6A     -0.832799
       7A     -0.704014     8A     -0.645299     9A     -0.574449
      10A     -0.534150    11A     -0.524170    12A     -0.488775
      13A     -0.439606

  @DF-RHF Final Energy:  -154.14557695573026

   => Energetics <=

    Nuclear Repulsion Energy =             82.2627081960782931
    One-Electron Energy =                -372.4942685009177126
    Two-Electron Energy =                 136.0859833491091706
    Total Energy =                       -154.1455769557302631
 Dipole X            :        -98.9800850           98.6333197           -0.3467653
 Dipole Y            :         -8.0958643            7.5869575           -0.5089068
 Dipole Z            :          1.8804238           -2.1052097           -0.2247860
 Magnitude           :                                                    0.6555616

    SAPT Results
  --------------------------------------------------------------------------------------------------------
    Electrostatics                 -3.40543570 [mEh]      -2.13694316 [kcal/mol]      -8.94097019 [kJ/mol]
      Elst10,r                     -2.89540365 [mEh]      -1.81689322 [kcal/mol]      -7.60188123 [kJ/mol]
      Elst12,r                     -0.51003205 [mEh]      -0.32004994 [kcal/mol]      -1.33908896 [kJ/mol]

    Exchange                        7.48492491 [mEh]       4.69686129 [kcal/mol]      19.65166765 [kJ/mol]
      Exch10                        6.62552884 [mEh]       4.15758212 [kcal/mol]      17.39532357 [kJ/mol]
      Exch10(S^2)                   6.60899833 [mEh]       4.14720906 [kcal/mol]      17.35192272 [kJ/mol]
      Exch11(S^2)                   0.13479855 [mEh]       0.08458737 [kcal/mol]       0.35391355 [kJ/mol]
      Exch12(S^2)                   0.72459752 [mEh]       0.45469181 [kcal/mol]       1.90243053 [kJ/mol]

    Induction                      -0.82232723 [mEh]      -0.51601813 [kcal/mol]      -2.15901985 [kJ/mol]
      Ind20,r                      -1.54580759 [mEh]      -0.97000891 [kcal/mol]      -4.05851728 [kJ/mol]
      Ind22                        -0.19538714 [mEh]      -0.12260728 [kcal/mol]      -0.51298888 [kJ/mol]
      Exch-Ind20,r                  1.23462407 [mEh]       0.77473830 [kcal/mol]       3.24150506 [kJ/mol]
      Exch-Ind22                    0.15605414 [mEh]       0.09792545 [kcal/mol]       0.40972008 [kJ/mol]
      delta HF,r (2)               -0.47181071 [mEh]      -0.29606569 [kcal/mol]      -1.23873885 [kJ/mol]

    Dispersion                     -6.77336587 [mEh]      -4.25035125 [kcal/mol]     -17.78346963 [kJ/mol]
      Disp20                       -6.95447132 [mEh]      -4.36399664 [kcal/mol]     -18.25896194 [kJ/mol]
      Disp21                        0.27699723 [mEh]       0.17381839 [kcal/mol]       0.72725613 [kJ/mol]
      Disp22 (SDQ)                  0.22995945 [mEh]       0.14430174 [kcal/mol]       0.60375846 [kJ/mol]
      Disp22 (T)                   -0.94573122 [mEh]      -0.59345530 [kcal/mol]      -2.48301697 [kJ/mol]
      Est. Disp22 (T)              -1.06166554 [mEh]      -0.66620518 [kcal/mol]      -2.78740248 [kJ/mol]
      Exch-Disp20                   0.73581431 [mEh]       0.46173045 [kcal/mol]       1.93188020 [kJ/mol]

  Total HF                          2.94713097 [mEh]       1.84935260 [kcal/mol]       7.73769129 [kJ/mol]
  Total SAPT0                      -3.27152605 [mEh]      -2.05291359 [kcal/mol]      -8.58939045 [kJ/mol]
  Total SAPT2                      -2.96149503 [mEh]      -1.85836619 [kcal/mol]      -7.77540413 [kJ/mol]
  Total SAPT2+                     -3.51620388 [mEh]      -2.20645125 [kcal/mol]      -9.23179202 [kJ/mol]

  Special recipe for scaled SAPT0 (see Manual):
    Electrostatics sSAPT0          -2.89540365 [mEh]      -1.81689322 [kcal/mol]      -7.60188123 [kJ/mol]
    Exchange sSAPT0                 6.62552884 [mEh]       4.15758212 [kcal/mol]      17.39532357 [kJ/mol]
    Induction sSAPT0               -0.77370686 [mEh]      -0.48550839 [kcal/mol]      -2.03136709 [kJ/mol]
    Dispersion sSAPT0              -6.21312191 [mEh]      -3.89879286 [kcal/mol]     -16.31254932 [kJ/mol]
  Total sSAPT0                     -3.25670358 [mEh]      -2.04361235 [kcal/mol]      -8.55047407 [kJ/mol]
  --------------------------------------------------------------------------------------------------------

*** Psi4 exiting successfully. Buy a developer a beer!
