                               Psi4 1.9 release

  ==> Input File <==

--------------------------------------------------------------------------
MEMORY 10 GB

molecule dimer {
0 1
C    1.670830  -1.097887  -0.461470
C    1.619645   0.181521   0.333312
O    2.674913   1.063326   0.017506
H    3.503479   0.593655   0.140571
H    0.813997  -1.730045  -0.219955
H    2.582489  -1.661151  -0.238303
H    1.663223  -0.884965  -1.533101
H    1.598567  -0.043374   1.409370
H    0.695258   0.724204   0.118711
--
0 1
C   -2.454579   1.119617  -0.140060
C   -2.011562  -0.288159  -0.447536
O   -1.418516  -0.922468   0.664397
H   -2.039041  -0.896367   1.397169
H   -2.877342   1.602135  -1.023446
H   -1.613294   1.720474   0.211940
H   -3.222641   1.124997   0.639218
H   -1.247577  -0.286816  -1.230912
H   -2.854302  -0.880165  -0.831960

units ang
no_reorient
no_com
symmetry c1
}

set {
basis        aug-cc-pVTZ
scf_type     df
}

energy("sapt2+")
--------------------------------------------------------------------------

  //              Dimer HF             //
    Molecular point group: c1
  Charge       = 0
  Multiplicity = 1
  Basis Set: AUG-CC-PVTZ
    Blend: AUG-CC-PVTZ
  Basis Set: (AUG-CC-PVTZ AUX)
    Blend: AUG-CC-PVTZ-JKFIT
  @DF-RHF Final Energy:  -308.28878090132730
    Total Energy =                       -308.2887809013272999
 Dipole X            :         -0.7378179           -0.0000076           -0.7378254
 Dipole Y            :         -0.3866233           -0.0000038           -0.3866271
 Dipole Z            :          0.1900913            0.0000038            0.1900951
 Magnitude           :                                                    0.8544021
  //            Monomer A HF           //
    Molecular point group: c1
  Multiplicity = 1
  Basis Set: AUG-CC-PVTZ
    Blend: AUG-CC-PVTZ
  Basis Set: (AUG-CC-PVTZ AUX)
    Blend: AUG-CC-PVTZ-JKFIT
  @DF-RHF Final Energy:  -154.14502085424056
    Total Energy =                       -154.1450208542405562
  //            Monomer B HF           //
    Molecular point group: c1

    Geometry (in Angstrom), charge = 0, multiplicity = 1:

       Center              X                  Y                   Z               Mass
    ------------   -----------------  -----------------  -----------------  -----------------
      Gh(C)           1.670830000000    -1.097887000000    -0.461470000000    12.000000000000
      Gh(C)           1.619645000000     0.181521000000     0.333312000000    12.000000000000
      Gh(O)           2.674913000000     1.063326000000     0.017506000000    15.994914619570
      Gh(H)           3.503479000000     0.593655000000     0.140571000000     1.007825032230
      Gh(H)           0.813997000000    -1.730045000000    -0.219955000000     1.007825032230
      Gh(H)           2.582489000000    -1.661151000000    -0.238303000000     1.007825032230
      Gh(H)           1.663223000000    -0.884965000000    -1.533101000000     1.007825032230
      Gh(H)           1.598567000000    -0.043374000000     1.409370000000     1.007825032230
      Gh(H)           0.695258000000     0.724204000000     0.118711000000     1.007825032230
         C           -2.454579000000     1.119617000000    -0.140060000000    12.000000000000
         C           -2.011562000000    -0.288159000000    -0.447536000000    12.000000000000
         O           -1.418516000000    -0.922468000000     0.664397000000    15.994914619570
         H           -2.039041000000    -0.896367000000     1.397169000000     1.007825032230
         H           -2.877342000000     1.602135000000    -1.023446000000     1.007825032230
         H           -1.613294000000     1.720474000000     0.211940000000     1.007825032230
         H           -3.222641000000     1.124997000000     0.639218000000     1.007825032230
         H           -1.247577000000    -0.286816000000    -1.230912000000     1.007825032230
         H           -2.854302000000    -0.880165000000    -0.831960000000     1.007825032230

  Charge       = 0
  Multiplicity = 1
  Basis Set: AUG-CC-PVTZ
    Blend: AUG-CC-PVTZ
  Basis Set: (AUG-CC-PVTZ AUX)
    Blend: AUG-CC-PVTZ-JKFIT

    Orbital Energies [Eh]
    ---------------------

    Doubly Occupied:

       1A    -20.555261     2A    -11.273564     3A    -11.218616
       4A     -1.361670     5A     -1.014615     6A     -0.848824
       7A     -0.686395     8A     -0.625709     9A     -0.612992
      10A     -0.543711    11A     -0.526458    12A     -0.481174
      13A     -0.442911

  @DF-RHF Final Energy:  -154.14513199470298

   => Energetics <=

    Nuclear Repulsion Energy =             82.1425760024568348
    One-Electron Energy =                -372.1916145386226162
    Two-Electron Energy =                 135.9039065414627885
    Total Energy =                       -154.1451319947029788
 Dipole X            :         97.6362877          -98.2641919           -0.6279043
 Dipole Y            :          0.3488313           -0.0127330            0.3360983
 Dipole Z            :         -1.8385225            1.7982804           -0.0402421
 Magnitude           :                                                    0.7133339

    SAPT Results
  --------------------------------------------------------------------------------------------------------
    Electrostatics                 -3.69676319 [mEh]      -2.31975392 [kcal/mol]      -9.70585041 [kJ/mol]
      Elst10,r                     -3.42826765 [mEh]      -2.15127043 [kcal/mol]      -9.00091547 [kJ/mol]
      Elst12,r                     -0.26849554 [mEh]      -0.16848349 [kcal/mol]      -0.70493494 [kJ/mol]

    Exchange                        6.58434454 [mEh]       4.13173858 [kcal/mol]      17.28719421 [kJ/mol]
      Exch10                        5.75847344 [mEh]       3.61349664 [kcal/mol]      15.11886994 [kJ/mol]
      Exch10(S^2)                   5.74580314 [mEh]       3.60554591 [kcal/mol]      15.08560407 [kJ/mol]
      Exch11(S^2)                   0.03441863 [mEh]       0.02159802 [kcal/mol]       0.09036611 [kJ/mol]
      Exch12(S^2)                   0.79145246 [mEh]       0.49664392 [kcal/mol]       2.07795816 [kJ/mol]

    Induction                      -1.02175917 [mEh]      -0.64116356 [kcal/mol]      -2.68262833 [kJ/mol]
      Ind20,r                      -1.68644299 [mEh]      -1.05825896 [kcal/mol]      -4.42775547 [kJ/mol]
      Ind22                        -0.19734193 [mEh]      -0.12383393 [kcal/mol]      -0.51812117 [kJ/mol]
      Exch-Ind20,r                  1.14377676 [mEh]       0.71773075 [kcal/mol]       3.00298546 [kJ/mol]
      Exch-Ind22                    0.13384094 [mEh]       0.08398646 [kcal/mol]       0.35139934 [kJ/mol]
      delta HF,r (2)               -0.41559194 [mEh]      -0.26078788 [kcal/mol]      -1.09113648 [kJ/mol]

    Dispersion                     -5.99236745 [mEh]      -3.76026735 [kcal/mol]     -15.73295858 [kJ/mol]
      Disp20                       -6.16806747 [mEh]      -3.87052077 [kcal/mol]     -16.19425891 [kJ/mol]
      Disp21                        0.36916058 [mEh]       0.23165176 [kcal/mol]       0.96923096 [kJ/mol]
      Disp22 (SDQ)                  0.13662195 [mEh]       0.08573157 [kcal/mol]       0.35870089 [kJ/mol]
      Disp22 (T)                   -0.86454737 [mEh]      -0.54251167 [kcal/mol]      -2.26986882 [kJ/mol]
      Est. Disp22 (T)              -0.96607938 [mEh]      -0.60622396 [kcal/mol]      -2.53644107 [kJ/mol]
      Exch-Disp20                   0.63599687 [mEh]       0.39909406 [kcal/mol]       1.66980955 [kJ/mol]

  Total HF                          1.37194762 [mEh]       0.86091013 [kcal/mol]       3.60204797 [kJ/mol]
  Total SAPT0                      -4.16012299 [mEh]      -2.61051659 [kcal/mol]     -10.92240140 [kJ/mol]
  Total SAPT2                      -3.66624842 [mEh]      -2.30060562 [kcal/mol]      -9.62573390 [kJ/mol]
  Total SAPT2+                     -4.12654527 [mEh]      -2.58944625 [kcal/mol]     -10.83424311 [kJ/mol]

  Special recipe for scaled SAPT0 (see Manual):
    Electrostatics sSAPT0          -3.42826765 [mEh]      -2.15127043 [kcal/mol]      -9.00091547 [kJ/mol]
    Exchange sSAPT0                 5.75847344 [mEh]       3.61349664 [kcal/mol]      15.11886994 [kJ/mol]
    Induction sSAPT0               -0.95067492 [mEh]      -0.59655752 [kcal/mol]      -2.49599665 [kJ/mol]
    Dispersion sSAPT0              -5.52785393 [mEh]      -3.46878071 [kcal/mol]     -14.51337850 [kJ/mol]
  Total sSAPT0                     -4.14832305 [mEh]      -2.60311202 [kcal/mol]     -10.89142068 [kJ/mol]
  --------------------------------------------------------------------------------------------------------

*** Psi4 exiting successfully. Buy a developer a beer!
