                               Psi4 1.9 release

  ==> Input File <==

--------------------------------------------------------------------------
MEMORY 10 GB

molecule dimer {
0 1
C   -1.976023   0.746718   0.790972
C   -1.792710   0.038582  -0.526085
O   -1.227247  -1.248106  -0.370351
H   -1.796923  -1.759699   0.209561
H   -2.400634   1.742179   0.645312
H   -1.012510   0.856037   1.292757
H   -2.651909   0.189921   1.447987
H   -1.093704   0.597995  -1.152012
H   -2.746235  -0.021497  -1.070103
--
0 1
C    1.976026  -0.746717   0.790972
C    1.792708  -0.038583  -0.526087
O    1.227246   1.248105  -0.370352
H    1.796925   1.759702   0.209554
H    2.400642  -1.742175   0.645313
H    1.012514  -0.856039   1.292757
H    2.651910  -0.189913   1.447983
H    1.093696  -0.597994  -1.152008
H    2.746232   0.021493  -1.070106

units ang
no_reorient
no_com
symmetry c1
}

set {
basis        aug-cc-pVTZ
scf_type     df
}

energy("sapt2+")
--------------------------------------------------------------------------

  //              Dimer HF             //
    Molecular point group: c1
  Charge       = 0
  Multiplicity = 1
  Basis Set: AUG-CC-PVTZ
    Blend: AUG-CC-PVTZ
  Basis Set: (AUG-CC-PVTZ AUX)
    Blend: AUG-CC-PVTZ-JKFIT
  @DF-RHF Final Energy:  -308.28885967646545
    Total Energy =                       -308.2888596764654494
 Dipole X            :         -0.0000023            0.0000038            0.0000014
 Dipole Y            :         -0.0000006            0.0000038            0.0000031
 Dipole Z            :          0.5707951            0.0000057            0.5708008
 Magnitude           :                                                    0.5708008
  //            Monomer A HF           //
    Molecular point group: c1
  Multiplicity = 1
  Basis Set: AUG-CC-PVTZ
    Blend: AUG-CC-PVTZ
  Basis Set: (AUG-CC-PVTZ AUX)
    Blend: AUG-CC-PVTZ-JKFIT
  @DF-RHF Final Energy:  -154.14509275483272
    Total Energy =                       -154.1450927548327172
  //            Monomer B HF           //
    Molecular point group: c1

    Geometry (in Angstrom), charge = 0, multiplicity = 1:

       Center              X                  Y                   Z               Mass
    ------------   -----------------  -----------------  -----------------  -----------------
      Gh(C)          -1.976023000000     0.746718000000     0.790972000000    12.000000000000
      Gh(C)          -1.792710000000     0.038582000000    -0.526085000000    12.000000000000
      Gh(O)          -1.227247000000    -1.248106000000    -0.370351000000    15.994914619570
      Gh(H)          -1.796923000000    -1.759699000000     0.209561000000     1.007825032230
      Gh(H)          -2.400634000000     1.742179000000     0.645312000000     1.007825032230
      Gh(H)          -1.012510000000     0.856037000000     1.292757000000     1.007825032230
      Gh(H)          -2.651909000000     0.189921000000     1.447987000000     1.007825032230
      Gh(H)          -1.093704000000     0.597995000000    -1.152012000000     1.007825032230
      Gh(H)          -2.746235000000    -0.021497000000    -1.070103000000     1.007825032230
         C            1.976026000000    -0.746717000000     0.790972000000    12.000000000000
         C            1.792708000000    -0.038583000000    -0.526087000000    12.000000000000
         O            1.227246000000     1.248105000000    -0.370352000000    15.994914619570
         H            1.796925000000     1.759702000000     0.209554000000     1.007825032230
         H            2.400642000000    -1.742175000000     0.645313000000     1.007825032230
         H            1.012514000000    -0.856039000000     1.292757000000     1.007825032230
         H            2.651910000000    -0.189913000000     1.447983000000     1.007825032230
         H            1.093696000000    -0.597994000000    -1.152008000000     1.007825032230
         H            2.746232000000     0.021493000000    -1.070106000000     1.007825032230

  Charge       = 0
  Multiplicity = 1
  Basis Set: AUG-CC-PVTZ
    Blend: AUG-CC-PVTZ
  Basis Set: (AUG-CC-PVTZ AUX)
    Blend: AUG-CC-PVTZ-JKFIT

    Orbital Energies [Eh]
    ---------------------

    Doubly Occupied:

       1A    -20.555050     2A    -11.273532     3A    -11.218351
       4A     -1.360537     5A     -1.015153     6A     -0.847708
       7A     -0.686689     8A     -0.625434     9A     -0.612361
      10A     -0.544059    11A     -0.525485    12A     -0.481572
      13A     -0.443318

  @DF-RHF Final Energy:  -154.14509279208210

   => Energetics <=

    Nuclear Repulsion Energy =             82.1231419652163908
    One-Electron Energy =                -372.1579712153004493
    Two-Electron Energy =                 135.8897364580019484
    Total Energy =                       -154.1450927920820959
 Dipole X            :        -82.8203619           83.3979433            0.5775813
 Dipole Y            :         -7.2139285            6.9317309           -0.2821976
 Dipole Z            :          0.3133622           -0.0000246            0.3133377
 Magnitude           :                                                    0.7151337

    SAPT Results
  --------------------------------------------------------------------------------------------------------
    Electrostatics                 -5.88893845 [mEh]      -3.69536467 [kcal/mol]     -15.46140577 [kJ/mol]
      Elst10,r                     -5.33994389 [mEh]      -3.35086538 [kcal/mol]     -14.02002075 [kJ/mol]
      Elst12,r                     -0.54899456 [mEh]      -0.34449929 [kcal/mol]      -1.44138502 [kJ/mol]

    Exchange                        9.45248206 [mEh]       5.93152204 [kcal/mol]      24.81748822 [kJ/mol]
      Exch10                        8.11461409 [mEh]       5.09199722 [kcal/mol]      21.30491635 [kJ/mol]
      Exch10(S^2)                   8.10194927 [mEh]       5.08404993 [kcal/mol]      21.27166489 [kJ/mol]
      Exch11(S^2)                   0.02812752 [mEh]       0.01765029 [kcal/mol]       0.07384880 [kJ/mol]
      Exch12(S^2)                   1.30974045 [mEh]       0.82187454 [kcal/mol]       3.43872307 [kJ/mol]

    Induction                      -1.57063408 [mEh]      -0.98558776 [kcal/mol]      -4.12369920 [kJ/mol]
      Ind20,r                      -2.47194992 [mEh]      -1.55117199 [kcal/mol]      -6.49010361 [kJ/mol]
      Ind22                        -0.33427760 [mEh]      -0.20976236 [kcal/mol]      -0.87764572 [kJ/mol]
      Exch-Ind20,r                  1.57099707 [mEh]       0.98581554 [kcal/mol]       4.12465224 [kJ/mol]
      Exch-Ind22                    0.21244327 [mEh]       0.13331017 [kcal/mol]       0.55776974 [kJ/mol]
      delta HF,r (2)               -0.54784690 [mEh]      -0.34377912 [kcal/mol]      -1.43837184 [kJ/mol]

    Dispersion                     -7.89964841 [mEh]      -4.95710421 [kcal/mol]     -20.74052403 [kJ/mol]
      Disp20                       -8.15405863 [mEh]      -5.11674904 [kcal/mol]     -21.40847799 [kJ/mol]
      Disp21                        0.62640016 [mEh]       0.39307203 [kcal/mol]       1.64461339 [kJ/mol]
      Disp22 (SDQ)                  0.04580251 [mEh]       0.02874151 [kcal/mol]       0.12025448 [kJ/mol]
      Disp22 (T)                   -1.17369397 [mEh]      -0.73650409 [kcal/mol]      -3.08153310 [kJ/mol]
      Est. Disp22 (T)              -1.30988988 [mEh]      -0.82196831 [kcal/mol]      -3.43911540 [kJ/mol]
      Exch-Disp20                   0.89209744 [mEh]       0.55979959 [kcal/mol]       2.34220149 [kJ/mol]

  Total HF                          1.32587045 [mEh]       0.83199627 [kcal/mol]       3.48107239 [kJ/mol]
  Total SAPT0                      -5.93609075 [mEh]      -3.72495318 [kcal/mol]     -15.58520411 [kJ/mol]
  Total SAPT2                      -5.26905167 [mEh]      -3.30637984 [kcal/mol]     -13.83389324 [kJ/mol]
  Total SAPT2+                     -5.90673887 [mEh]      -3.70653460 [kcal/mol]     -15.50814077 [kJ/mol]

  Special recipe for scaled SAPT0 (see Manual):
    Electrostatics sSAPT0          -5.33994389 [mEh]      -3.35086538 [kcal/mol]     -14.02002075 [kJ/mol]
    Exchange sSAPT0                 8.11461409 [mEh]       5.09199722 [kcal/mol]      21.30491635 [kJ/mol]
    Induction sSAPT0               -1.44142097 [mEh]      -0.90450531 [kcal/mol]      -3.78445023 [kJ/mol]
    Dispersion sSAPT0              -7.25777112 [mEh]      -4.55432014 [kcal/mol]     -19.05527546 [kJ/mol]
  Total sSAPT0                     -5.92452190 [mEh]      -3.71769362 [kcal/mol]     -15.55483009 [kJ/mol]
  --------------------------------------------------------------------------------------------------------

*** Psi4 exiting successfully. Buy a developer a beer!
