                               Psi4 1.9 release

  ==> Input File <==

--------------------------------------------------------------------------
MEMORY 10 GB

molecule dimer {
0 1
C    1.736154   1.238757   0.375694
C    1.521043  -0.159274  -0.147723
O    2.720729  -0.874008  -0.309755
H    3.169352  -0.911023   0.538811
H    0.792842   1.786930   0.438143
H    2.414846   1.791397  -0.276413
H    2.172872   1.216265   1.378374
H    1.060936  -0.122646  -1.140929
H    0.823530  -0.702931   0.509934
--
0 1
C   -2.070588   0.965155  -0.611134
C   -2.033735  -0.009255   0.539494
O   -1.945950  -1.347923   0.114101
H   -1.164276  -1.440974  -0.438262
H   -2.170445   1.993285  -0.255787
H   -2.907778   0.745029  -1.275961
H   -1.149275   0.906696  -1.200147
H   -2.952173   0.058504   1.128187
H   -1.205904   0.242618   1.221299

units ang
no_reorient
no_com
symmetry c1
}

set {
basis        aug-cc-pVTZ
scf_type     df
}

energy("sapt2+")
--------------------------------------------------------------------------

  //              Dimer HF             //
    Molecular point group: c1
  Charge       = 0
  Multiplicity = 1
  Basis Set: AUG-CC-PVTZ
    Blend: AUG-CC-PVTZ
  Basis Set: (AUG-CC-PVTZ AUX)
    Blend: AUG-CC-PVTZ-JKFIT
  @DF-RHF Final Energy:  -308.28715028746387
    Total Energy =                       -308.2871502874638736
 Dipole X            :          0.2112986            0.0000057            0.2113043
 Dipole Y            :          0.8750683           -0.0000000            0.8750683
 Dipole Z            :          0.4133114            0.0000057            0.4133171
 Magnitude           :                                                    0.9905680
  //            Monomer A HF           //
    Molecular point group: c1
  Multiplicity = 1
  Basis Set: AUG-CC-PVTZ
    Blend: AUG-CC-PVTZ
  Basis Set: (AUG-CC-PVTZ AUX)
    Blend: AUG-CC-PVTZ-JKFIT
  @DF-RHF Final Energy:  -154.14512004573805
    Total Energy =                       -154.1451200457380537
  //            Monomer B HF           //
    Molecular point group: c1

    Geometry (in Angstrom), charge = 0, multiplicity = 1:

       Center              X                  Y                   Z               Mass
    ------------   -----------------  -----------------  -----------------  -----------------
      Gh(C)           1.736154000000     1.238757000000     0.375694000000    12.000000000000
      Gh(C)           1.521043000000    -0.159274000000    -0.147723000000    12.000000000000
      Gh(O)           2.720729000000    -0.874008000000    -0.309755000000    15.994914619570
      Gh(H)           3.169352000000    -0.911023000000     0.538811000000     1.007825032230
      Gh(H)           0.792842000000     1.786930000000     0.438143000000     1.007825032230
      Gh(H)           2.414846000000     1.791397000000    -0.276413000000     1.007825032230
      Gh(H)           2.172872000000     1.216265000000     1.378374000000     1.007825032230
      Gh(H)           1.060936000000    -0.122646000000    -1.140929000000     1.007825032230
      Gh(H)           0.823530000000    -0.702931000000     0.509934000000     1.007825032230
         C           -2.070588000000     0.965155000000    -0.611134000000    12.000000000000
         C           -2.033735000000    -0.009255000000     0.539494000000    12.000000000000
         O           -1.945950000000    -1.347923000000     0.114101000000    15.994914619570
         H           -1.164276000000    -1.440974000000    -0.438262000000     1.007825032230
         H           -2.170445000000     1.993285000000    -0.255787000000     1.007825032230
         H           -2.907778000000     0.745029000000    -1.275961000000     1.007825032230
         H           -1.149275000000     0.906696000000    -1.200147000000     1.007825032230
         H           -2.952173000000     0.058504000000     1.128187000000     1.007825032230
         H           -1.205904000000     0.242618000000     1.221299000000     1.007825032230

  Charge       = 0
  Multiplicity = 1
  Basis Set: AUG-CC-PVTZ
    Blend: AUG-CC-PVTZ
  Basis Set: (AUG-CC-PVTZ AUX)
    Blend: AUG-CC-PVTZ-JKFIT

    Orbital Energies [Eh]
    ---------------------

    Doubly Occupied:

       1A    -20.555793     2A    -11.273440     3A    -11.218418
       4A     -1.362928     5A     -1.014179     6A     -0.848554
       7A     -0.687280     8A     -0.626345     9A     -0.612221
      10A     -0.544218    11A     -0.526594    12A     -0.480812
      13A     -0.442372

  @DF-RHF Final Energy:  -154.14509750780775

   => Energetics <=

    Nuclear Repulsion Energy =             82.1685876787795877
    One-Electron Energy =                -372.2410597691279008
    Two-Electron Energy =                 135.9273745825405513
    Total Energy =                       -154.1450975078077477
 Dipole X            :         98.1939226          -97.7808340            0.4130885
 Dipole Y            :          5.3516371           -4.8052447            0.5463923
 Dipole Z            :          0.4590380           -0.6381662           -0.1791281
 Magnitude           :                                                    0.7080068

    SAPT Results
  --------------------------------------------------------------------------------------------------------
    Electrostatics                 -1.87731521 [mEh]      -1.17803308 [kcal/mol]      -4.92889040 [kJ/mol]
      Elst10,r                     -1.52913907 [mEh]      -0.95954925 [kcal/mol]      -4.01475408 [kJ/mol]
      Elst12,r                     -0.34817614 [mEh]      -0.21848382 [kcal/mol]      -0.91413632 [kJ/mol]

    Exchange                        5.87917786 [mEh]       3.68923980 [kcal/mol]      15.43577934 [kJ/mol]
      Exch10                        5.25230293 [mEh]       3.29586985 [kcal/mol]      13.78991944 [kJ/mol]
      Exch10(S^2)                   5.24356614 [mEh]       3.29038743 [kcal/mol]      13.76698101 [kJ/mol]
      Exch11(S^2)                   0.15227049 [mEh]       0.09555118 [kcal/mol]       0.39978613 [kJ/mol]
      Exch12(S^2)                   0.47460444 [mEh]       0.29781878 [kcal/mol]       1.24607377 [kJ/mol]

    Induction                      -0.69607591 [mEh]      -0.43679423 [kcal/mol]      -1.82754704 [kJ/mol]
      Ind20,r                      -1.25181989 [mEh]      -0.78552884 [kcal/mol]      -3.28665266 [kJ/mol]
      Ind22                        -0.15847588 [mEh]      -0.09944512 [kcal/mol]      -0.41607837 [kJ/mol]
      Exch-Ind20,r                  0.93444804 [mEh]       0.58637500 [kcal/mol]       2.45339299 [kJ/mol]
      Exch-Ind22                    0.11829775 [mEh]       0.07423296 [kcal/mol]       0.31059070 [kJ/mol]
      delta HF,r (2)               -0.33852593 [mEh]      -0.21242823 [kcal/mol]      -0.88879971 [kJ/mol]

    Dispersion                     -6.12484883 [mEh]      -3.84340067 [kcal/mol]     -16.08078839 [kJ/mol]
      Disp20                       -6.14310757 [mEh]      -3.85485820 [kcal/mol]     -16.12872671 [kJ/mol]
      Disp21                        0.19217500 [mEh]       0.12059163 [kcal/mol]       0.50455538 [kJ/mol]
      Disp22 (SDQ)                  0.22011315 [mEh]       0.13812308 [kcal/mol]       0.57790699 [kJ/mol]
      Disp22 (T)                   -0.85790538 [mEh]      -0.53834375 [kcal/mol]      -2.25243026 [kJ/mol]
      Est. Disp22 (T)              -0.95791217 [mEh]      -0.60109896 [kcal/mol]      -2.51499805 [kJ/mol]
      Exch-Disp20                   0.56388277 [mEh]       0.35384178 [kcal/mol]       1.48047400 [kJ/mol]

  Total HF                          3.06726608 [mEh]       1.92473853 [kcal/mol]       8.05310599 [kJ/mol]
  Total SAPT0                      -2.51195872 [mEh]      -1.57627790 [kcal/mol]      -6.59514672 [kJ/mol]
  Total SAPT2                      -2.27343806 [mEh]      -1.42660392 [kcal/mol]      -5.96891081 [kJ/mol]
  Total SAPT2+                     -2.81906209 [mEh]      -1.76898817 [kcal/mol]      -7.40144649 [kJ/mol]

  Special recipe for scaled SAPT0 (see Manual):
    Electrostatics sSAPT0          -1.52913907 [mEh]      -0.95954925 [kcal/mol]      -4.01475408 [kJ/mol]
    Exchange sSAPT0                 5.25230293 [mEh]       3.29586985 [kcal/mol]      13.78991944 [kJ/mol]
    Induction sSAPT0               -0.65121908 [mEh]      -0.40864614 [kcal/mol]      -1.70977546 [kJ/mol]
    Dispersion sSAPT0              -5.57640150 [mEh]      -3.49924477 [kcal/mol]     -14.64084011 [kJ/mol]
  Total sSAPT0                     -2.50445672 [mEh]      -1.57157032 [kcal/mol]      -6.57545021 [kJ/mol]
  --------------------------------------------------------------------------------------------------------

*** Psi4 exiting successfully. Buy a developer a beer!
