                               Psi4 1.9 release

  ==> Input File <==

--------------------------------------------------------------------------
MEMORY 10 GB

molecule dimer {
0 1
C   -1.593383  -1.115858   0.591644
C   -1.764270  -0.123712  -0.529372
O   -1.862939   1.204783  -0.058805
H   -2.583391   1.248279   0.574950
H   -1.478930  -2.129891   0.203014
H   -2.458898  -1.109118   1.262035
H   -0.702776  -0.873489   1.176003
H   -2.637502  -0.383753  -1.144722
H   -0.887162  -0.148794  -1.180624
--
0 1
C    1.625389   1.264971   0.088206
C    2.097317  -0.135053   0.361724
O    1.513242  -0.993398  -0.597254
H    1.828698  -1.887056  -0.450836
H    2.084511   1.967305   0.786209
H    0.539622   1.343080   0.186799
H    1.897259   1.562903  -0.926434
H    1.811527  -0.437927   1.380738
H    3.194302  -0.184703   0.308121

units ang
no_reorient
no_com
symmetry c1
}

set {
basis        aug-cc-pVTZ
scf_type     df
}

energy("sapt2+")
--------------------------------------------------------------------------

  //              Dimer HF             //
    Molecular point group: c1
  Charge       = 0
  Multiplicity = 1
  Basis Set: AUG-CC-PVTZ
    Blend: AUG-CC-PVTZ
  Basis Set: (AUG-CC-PVTZ AUX)
    Blend: AUG-CC-PVTZ-JKFIT
  @DF-RHF Final Energy:  -308.28842397997482
    Total Energy =                       -308.2884239799748229
 Dipole X            :          0.0650362            0.0000038            0.0650400
 Dipole Y            :         -0.7157365            0.0000076           -0.7157289
 Dipole Z            :          0.6207394           -0.0000132            0.6207261
 Magnitude           :                                                    0.9496310
  //            Monomer A HF           //
    Molecular point group: c1
  Multiplicity = 1
  Basis Set: AUG-CC-PVTZ
    Blend: AUG-CC-PVTZ
  Basis Set: (AUG-CC-PVTZ AUX)
    Blend: AUG-CC-PVTZ-JKFIT
  @DF-RHF Final Energy:  -154.14507229966807
    Total Energy =                       -154.1450722996680724
  //            Monomer B HF           //
    Molecular point group: c1

    Geometry (in Angstrom), charge = 0, multiplicity = 1:

       Center              X                  Y                   Z               Mass
    ------------   -----------------  -----------------  -----------------  -----------------
      Gh(C)          -1.593383000000    -1.115858000000     0.591644000000    12.000000000000
      Gh(C)          -1.764270000000    -0.123712000000    -0.529372000000    12.000000000000
      Gh(O)          -1.862939000000     1.204783000000    -0.058805000000    15.994914619570
      Gh(H)          -2.583391000000     1.248279000000     0.574950000000     1.007825032230
      Gh(H)          -1.478930000000    -2.129891000000     0.203014000000     1.007825032230
      Gh(H)          -2.458898000000    -1.109118000000     1.262035000000     1.007825032230
      Gh(H)          -0.702776000000    -0.873489000000     1.176003000000     1.007825032230
      Gh(H)          -2.637502000000    -0.383753000000    -1.144722000000     1.007825032230
      Gh(H)          -0.887162000000    -0.148794000000    -1.180624000000     1.007825032230
         C            1.625389000000     1.264971000000     0.088206000000    12.000000000000
         C            2.097317000000    -0.135053000000     0.361724000000    12.000000000000
         O            1.513242000000    -0.993398000000    -0.597254000000    15.994914619570
         H            1.828698000000    -1.887056000000    -0.450836000000     1.007825032230
         H            2.084511000000     1.967305000000     0.786209000000     1.007825032230
         H            0.539622000000     1.343080000000     0.186799000000     1.007825032230
         H            1.897259000000     1.562903000000    -0.926434000000     1.007825032230
         H            1.811527000000    -0.437927000000     1.380738000000     1.007825032230
         H            3.194302000000    -0.184703000000     0.308121000000     1.007825032230

  Charge       = 0
  Multiplicity = 1
  Basis Set: AUG-CC-PVTZ
    Blend: AUG-CC-PVTZ
  Basis Set: (AUG-CC-PVTZ AUX)
    Blend: AUG-CC-PVTZ-JKFIT

    Orbital Energies [Eh]
    ---------------------

    Doubly Occupied:

       1A    -20.555536     2A    -11.274102     3A    -11.211347
       4A     -1.361074     5A     -1.014105     6A     -0.833257
       7A     -0.702730     8A     -0.645186     9A     -0.573925
      10A     -0.533074    11A     -0.524601    12A     -0.489546
      13A     -0.439914

  @DF-RHF Final Energy:  -154.14563140463525

   => Energetics <=

    Nuclear Repulsion Energy =             82.1835789225743270
    One-Electron Energy =                -372.3416226151795172
    Two-Electron Energy =                 136.0124122879699371
    Total Energy =                       -154.1456314046352531
 Dipole X            :        -86.1197826           86.5458491            0.4260665
 Dipole Y            :         -2.4273419            2.2599726           -0.1673693
 Dipole Z            :          1.9759284           -1.5001685            0.4757599
 Magnitude           :                                                    0.6602216

    SAPT Results
  --------------------------------------------------------------------------------------------------------
    Electrostatics                 -5.41166888 [mEh]      -3.39587349 [kcal/mol]     -14.20833468 [kJ/mol]
      Elst10,r                     -4.75176881 [mEh]      -2.98177995 [kcal/mol]     -12.47576730 [kJ/mol]
      Elst12,r                     -0.65990007 [mEh]      -0.41409354 [kcal/mol]      -1.73256739 [kJ/mol]

    Exchange                        9.82713780 [mEh]       6.16662207 [kcal/mol]      25.80114674 [kJ/mol]
      Exch10                        8.52543297 [mEh]       5.34978996 [kcal/mol]      22.38352118 [kJ/mol]
      Exch10(S^2)                   8.50111711 [mEh]       5.33453153 [kcal/mol]      22.31967991 [kJ/mol]
      Exch11(S^2)                   0.05651822 [mEh]       0.03546572 [kcal/mol]       0.14838855 [kJ/mol]
      Exch12(S^2)                   1.24518662 [mEh]       0.78136640 [kcal/mol]       3.26923701 [kJ/mol]

    Induction                      -1.60460561 [mEh]      -1.00690522 [kcal/mol]      -4.21289145 [kJ/mol]
      Ind20,r                      -2.66349765 [mEh]      -1.67137001 [kcal/mol]      -6.99301213 [kJ/mol]
      Ind22                        -0.35453470 [mEh]      -0.22247388 [kcal/mol]      -0.93083073 [kJ/mol]
      Exch-Ind20,r                  1.83210358 [mEh]       1.14966235 [kcal/mol]       4.81018728 [kJ/mol]
      Exch-Ind22                    0.24386892 [mEh]       0.15303006 [kcal/mol]       0.64027776 [kJ/mol]
      delta HF,r (2)               -0.66254575 [mEh]      -0.41575374 [kcal/mol]      -1.73951364 [kJ/mol]

    Dispersion                     -7.74328477 [mEh]      -4.85898455 [kcal/mol]     -20.32999137 [kJ/mol]
      Disp20                       -8.04952104 [mEh]      -5.05115071 [kcal/mol]     -21.13401457 [kJ/mol]
      Disp21                        0.52894923 [mEh]       0.33192066 [kcal/mol]       1.38875602 [kJ/mol]
      Disp22 (SDQ)                  0.10941620 [mEh]       0.06865970 [kcal/mol]       0.28727220 [kJ/mol]
      Disp22 (T)                   -1.13118626 [mEh]      -0.70983010 [kcal/mol]      -2.96992912 [kJ/mol]
      Est. Disp22 (T)              -1.27143445 [mEh]      -0.79783716 [kcal/mol]      -3.33815069 [kJ/mol]
      Exch-Disp20                   0.93930528 [mEh]       0.58942296 [kcal/mol]       2.46614567 [kJ/mol]

  Total HF                          2.27972433 [mEh]       1.43054861 [kcal/mol]       5.98541540 [kJ/mol]
  Total SAPT0                      -4.83049143 [mEh]      -3.03117914 [kcal/mol]     -12.68245350 [kJ/mol]
  Total SAPT2                      -4.29935245 [mEh]      -2.69788439 [kcal/mol]     -11.28794829 [kJ/mol]
  Total SAPT2+                     -4.93242146 [mEh]      -3.09514120 [kcal/mol]     -12.95007076 [kJ/mol]

  Special recipe for scaled SAPT0 (see Manual):
    Electrostatics sSAPT0          -4.75176881 [mEh]      -2.98177995 [kcal/mol]     -12.47576730 [kJ/mol]
    Exchange sSAPT0                 8.52543297 [mEh]       5.34978996 [kcal/mol]      22.38352118 [kJ/mol]
    Induction sSAPT0               -1.47817365 [mEh]      -0.92756797 [kcal/mol]      -3.88094438 [kJ/mol]
    Dispersion sSAPT0              -7.10213256 [mEh]      -4.45665547 [kcal/mol]     -18.64664647 [kJ/mol]
  Total sSAPT0                     -4.80664205 [mEh]      -3.01621343 [kcal/mol]     -12.61983697 [kJ/mol]
  --------------------------------------------------------------------------------------------------------

*** Psi4 exiting successfully. Buy a developer a beer!
