                               Psi4 1.9 release

  ==> Input File <==

--------------------------------------------------------------------------
MEMORY 10 GB

molecule dimer {
0 1
C   -2.487597   0.608687  -0.583554
C   -1.837698  -0.656164  -0.076304
O   -1.085446  -0.443379   1.089982
H   -0.371751   0.172884   0.864426
H   -3.099850   0.414336  -1.467330
H   -1.727073   1.345474  -0.856583
H   -3.123218   1.046984   0.188632
H   -1.216734  -1.099176  -0.871686
H   -2.598797  -1.401041   0.175005
--
0 1
C    1.918981  -1.043395  -0.470114
C    2.292208   0.315008   0.050278
O    1.116813   1.110588   0.084284
H    1.332036   1.988261   0.406597
H    2.794996  -1.691769  -0.514538
H    1.498225  -0.964042  -1.474590
H    1.173296  -1.510155   0.177450
H    3.044584   0.782449  -0.598000
H    2.727986   0.233302   1.054655

units ang
no_reorient
no_com
symmetry c1
}

set {
basis        aug-cc-pVTZ
scf_type     df
}

energy("sapt2+")
--------------------------------------------------------------------------

  //              Dimer HF             //
    Molecular point group: c1
  Charge       = 0
  Multiplicity = 1
  Basis Set: AUG-CC-PVTZ
    Blend: AUG-CC-PVTZ
  Basis Set: (AUG-CC-PVTZ AUX)
    Blend: AUG-CC-PVTZ-JKFIT
  @DF-RHF Final Energy:  -308.29435832843001
    Total Energy =                       -308.2943583284300075
 Dipole X            :          0.9825732            0.0000000            0.9825732
 Dipole Y            :          0.5505281           -0.0000094            0.5505186
 Dipole Z            :         -0.4616539            0.0000038           -0.4616501
 Magnitude           :                                                    1.2172270
  //            Monomer A HF           //
    Molecular point group: c1
  Multiplicity = 1
  Basis Set: AUG-CC-PVTZ
    Blend: AUG-CC-PVTZ
  Basis Set: (AUG-CC-PVTZ AUX)
    Blend: AUG-CC-PVTZ-JKFIT
  @DF-RHF Final Energy:  -154.14459873839888
    Total Energy =                       -154.1445987383988836
  //            Monomer B HF           //
    Molecular point group: c1

    Geometry (in Angstrom), charge = 0, multiplicity = 1:

       Center              X                  Y                   Z               Mass
    ------------   -----------------  -----------------  -----------------  -----------------
      Gh(C)          -2.487597000000     0.608687000000    -0.583554000000    12.000000000000
      Gh(C)          -1.837698000000    -0.656164000000    -0.076304000000    12.000000000000
      Gh(O)          -1.085446000000    -0.443379000000     1.089982000000    15.994914619570
      Gh(H)          -0.371751000000     0.172884000000     0.864426000000     1.007825032230
      Gh(H)          -3.099850000000     0.414336000000    -1.467330000000     1.007825032230
      Gh(H)          -1.727073000000     1.345474000000    -0.856583000000     1.007825032230
      Gh(H)          -3.123218000000     1.046984000000     0.188632000000     1.007825032230
      Gh(H)          -1.216734000000    -1.099176000000    -0.871686000000     1.007825032230
      Gh(H)          -2.598797000000    -1.401041000000     0.175005000000     1.007825032230
         C            1.918981000000    -1.043395000000    -0.470114000000    12.000000000000
         C            2.292208000000     0.315008000000     0.050278000000    12.000000000000
         O            1.116813000000     1.110588000000     0.084284000000    15.994914619570
         H            1.332036000000     1.988261000000     0.406597000000     1.007825032230
         H            2.794996000000    -1.691769000000    -0.514538000000     1.007825032230
         H            1.498225000000    -0.964042000000    -1.474590000000     1.007825032230
         H            1.173296000000    -1.510155000000     0.177450000000     1.007825032230
         H            3.044584000000     0.782449000000    -0.598000000000     1.007825032230
         H            2.727986000000     0.233302000000     1.054655000000     1.007825032230

  Charge       = 0
  Multiplicity = 1
  Basis Set: AUG-CC-PVTZ
    Blend: AUG-CC-PVTZ
  Basis Set: (AUG-CC-PVTZ AUX)
    Blend: AUG-CC-PVTZ-JKFIT

    Orbital Energies [Eh]
    ---------------------

    Doubly Occupied:

       1A    -20.554597     2A    -11.273991     3A    -11.211460
       4A     -1.357934     5A     -1.014678     6A     -0.833638
       7A     -0.700832     8A     -0.645499     9A     -0.571966
      10A     -0.533506    11A     -0.524432    12A     -0.489573
      13A     -0.440697

  @DF-RHF Final Energy:  -154.14565973276325

   => Energetics <=

    Nuclear Repulsion Energy =             82.1127270384782548
    One-Electron Energy =                -372.2111662386338367
    Two-Electron Energy =                 135.9527794673923040
    Total Energy =                       -154.1456597327632494
 Dipole X            :        -87.7732107           88.3877084            0.6144978
 Dipole Y            :         -6.1559162            6.3351708            0.1792546
 Dipole Z            :          5.4503738           -5.2783263            0.1720474
 Magnitude           :                                                    0.6628273

    SAPT Results
  --------------------------------------------------------------------------------------------------------
    Electrostatics                -16.40177800 [mEh]     -10.29227108 [kcal/mol]     -43.06286220 [kJ/mol]
      Elst10,r                    -15.87580048 [mEh]      -9.96221520 [kcal/mol]     -41.68190841 [kJ/mol]
      Elst12,r                     -0.52597752 [mEh]      -0.33005588 [kcal/mol]      -1.38095380 [kJ/mol]

    Exchange                       19.46392127 [mEh]      12.21379499 [kcal/mol]      51.10251825 [kJ/mol]
      Exch10                       16.56069307 [mEh]      10.39199179 [kcal/mol]      43.48009367 [kJ/mol]
      Exch10(S^2)                  16.44004051 [mEh]      10.31628117 [kcal/mol]      43.16332042 [kJ/mol]
      Exch11(S^2)                   0.17009710 [mEh]       0.10673754 [kcal/mol]       0.44658988 [kJ/mol]
      Exch12(S^2)                   2.73313110 [mEh]       1.71506566 [kcal/mol]       7.17583470 [kJ/mol]

    Induction                      -5.27545210 [mEh]      -3.31039617 [kcal/mol]     -13.85069759 [kJ/mol]
      Ind20,r                      -7.07898651 [mEh]      -4.44213110 [kcal/mol]     -18.58587653 [kJ/mol]
      Ind22                        -1.25405245 [mEh]      -0.78692979 [kcal/mol]      -3.29251424 [kJ/mol]
      Exch-Ind20,r                  4.30902697 [mEh]       2.70395525 [kcal/mol]      11.31334876 [kJ/mol]
      Exch-Ind22                    0.76335021 [mEh]       0.47900949 [kcal/mol]       2.00417569 [kJ/mol]
      delta HF,r (2)               -2.01479032 [mEh]      -1.26430001 [kcal/mol]      -5.28983126 [kJ/mol]

    Dispersion                     -9.13050244 [mEh]      -5.72947678 [kcal/mol]     -23.97213085 [kJ/mol]
      Disp20                       -9.40382784 [mEh]      -5.90099106 [kcal/mol]     -24.68974658 [kJ/mol]
      Disp21                        0.57937061 [mEh]       0.36356055 [kcal/mol]       1.52113734 [kJ/mol]
      Disp22 (SDQ)                 -0.09184908 [mEh]      -0.05763617 [kcal/mol]      -0.24114972 [kJ/mol]
      Disp22 (T)                   -1.42925116 [mEh]      -0.89686864 [kcal/mol]      -3.75249841 [kJ/mol]
      Est. Disp22 (T)              -1.62341118 [mEh]      -1.01870590 [kcal/mol]      -4.26226547 [kJ/mol]
      Exch-Disp20                   1.40921504 [mEh]       0.88429579 [kcal/mol]       3.69989359 [kJ/mol]

  Total HF                         -4.09985727 [mEh]      -2.57269928 [kcal/mol]     -10.76417377 [kJ/mol]
  Total SAPT0                     -12.09447006 [mEh]      -7.58939454 [kcal/mol]     -31.75402677 [kJ/mol]
  Total SAPT2                     -10.20792163 [mEh]      -6.40556753 [kcal/mol]     -26.80089454 [kJ/mol]
  Total SAPT2+                    -11.34381127 [mEh]      -7.11834904 [kcal/mol]     -29.78317239 [kJ/mol]

  Special recipe for scaled SAPT0 (see Manual):
    Electrostatics sSAPT0         -15.87580048 [mEh]      -9.96221520 [kcal/mol]     -41.68190841 [kJ/mol]
    Exchange sSAPT0                16.56069307 [mEh]      10.39199179 [kcal/mol]      43.48009367 [kJ/mol]
    Induction sSAPT0               -4.68918076 [mEh]      -2.94250535 [kcal/mol]     -12.31144240 [kJ/mol]
    Dispersion sSAPT0              -7.96335808 [mEh]      -4.99708264 [kcal/mol]     -20.90779376 [kJ/mol]
  Total sSAPT0                    -11.96764625 [mEh]      -7.50981140 [kcal/mol]     -31.42105090 [kJ/mol]
  --------------------------------------------------------------------------------------------------------

*** Psi4 exiting successfully. Buy a developer a beer!
