                               Psi4 1.9 release

  ==> Input File <==

--------------------------------------------------------------------------
MEMORY 10 GB

molecule dimer {
0 1
C   -2.285309  -0.761088  -0.427513
C   -1.714720   0.631558  -0.309701
O   -1.072778   0.847664   0.919368
H   -0.398112   0.158472   1.022803
H   -2.793669  -0.903055  -1.383934
H   -2.999897  -0.949525   0.376126
H   -1.490434  -1.508978  -0.350374
H   -2.510620   1.378697  -0.382830
H   -1.030152   0.827401  -1.153322
--
0 1
C    2.153779   0.895609  -0.350996
C    1.675674  -0.525792  -0.494537
O    1.106631  -1.028888   0.703835
H    1.772442  -1.000822   1.396537
H    2.547837   1.271404  -1.297171
H    2.954107   0.965752   0.391475
H    1.334010   1.543107  -0.031210
H    2.486286  -1.183106  -0.833936
H    0.880838  -0.591278  -1.243298

units ang
no_reorient
no_com
symmetry c1
}

set {
basis        aug-cc-pVTZ
scf_type     df
}

energy("sapt2+")
--------------------------------------------------------------------------

  //              Dimer HF             //
    Molecular point group: c1
  Charge       = 0
  Multiplicity = 1
  Basis Set: AUG-CC-PVTZ
    Blend: AUG-CC-PVTZ
  Basis Set: (AUG-CC-PVTZ AUX)
    Blend: AUG-CC-PVTZ-JKFIT
  @DF-RHF Final Energy:  -308.29231800968682
    Total Energy =                       -308.2923180096868236
 Dipole X            :          0.9758460            0.0000076            0.9758536
 Dipole Y            :         -0.3310258           -0.0000019           -0.3310277
 Dipole Z            :         -0.5097638            0.0000151           -0.5097487
 Magnitude           :                                                    1.1496579
  //            Monomer A HF           //
    Molecular point group: c1
  Multiplicity = 1
  Basis Set: AUG-CC-PVTZ
    Blend: AUG-CC-PVTZ
  Basis Set: (AUG-CC-PVTZ AUX)
    Blend: AUG-CC-PVTZ-JKFIT
  @DF-RHF Final Energy:  -154.14451821344343
    Total Energy =                       -154.1445182134434333
  //            Monomer B HF           //
    Molecular point group: c1

    Geometry (in Angstrom), charge = 0, multiplicity = 1:

       Center              X                  Y                   Z               Mass
    ------------   -----------------  -----------------  -----------------  -----------------
      Gh(C)          -2.285309000000    -0.761088000000    -0.427513000000    12.000000000000
      Gh(C)          -1.714720000000     0.631558000000    -0.309701000000    12.000000000000
      Gh(O)          -1.072778000000     0.847664000000     0.919368000000    15.994914619570
      Gh(H)          -0.398112000000     0.158472000000     1.022803000000     1.007825032230
      Gh(H)          -2.793669000000    -0.903055000000    -1.383934000000     1.007825032230
      Gh(H)          -2.999897000000    -0.949525000000     0.376126000000     1.007825032230
      Gh(H)          -1.490434000000    -1.508978000000    -0.350374000000     1.007825032230
      Gh(H)          -2.510620000000     1.378697000000    -0.382830000000     1.007825032230
      Gh(H)          -1.030152000000     0.827401000000    -1.153322000000     1.007825032230
         C            2.153779000000     0.895609000000    -0.350996000000    12.000000000000
         C            1.675674000000    -0.525792000000    -0.494537000000    12.000000000000
         O            1.106631000000    -1.028888000000     0.703835000000    15.994914619570
         H            1.772442000000    -1.000822000000     1.396537000000     1.007825032230
         H            2.547837000000     1.271404000000    -1.297171000000     1.007825032230
         H            2.954107000000     0.965752000000     0.391475000000     1.007825032230
         H            1.334010000000     1.543107000000    -0.031210000000     1.007825032230
         H            2.486286000000    -1.183106000000    -0.833936000000     1.007825032230
         H            0.880838000000    -0.591278000000    -1.243298000000     1.007825032230

  Charge       = 0
  Multiplicity = 1
  Basis Set: AUG-CC-PVTZ
    Blend: AUG-CC-PVTZ
  Basis Set: (AUG-CC-PVTZ AUX)
    Blend: AUG-CC-PVTZ-JKFIT

    Orbital Energies [Eh]
    ---------------------

    Doubly Occupied:

       1A    -20.554499     2A    -11.273896     3A    -11.218397
       4A     -1.358096     5A     -1.015009     6A     -0.847805
       7A     -0.686314     8A     -0.624391     9A     -0.609692
      10A     -0.544754    11A     -0.525306    12A     -0.480696
      13A     -0.444037

  @DF-RHF Final Energy:  -154.14511165719327

   => Energetics <=

    Nuclear Repulsion Energy =             81.9975189564733569
    One-Electron Energy =                -371.9194708773670186
    Two-Electron Energy =                 135.7768402637003931
    Total Energy =                       -154.1451116571932687
 Dipole X            :        -82.1298620           82.7799934            0.6501314
 Dipole Y            :          9.7425433           -9.4621327            0.2804105
 Dipole Z            :          1.8913329           -2.0033383           -0.1120055
 Magnitude           :                                                    0.7168306

    SAPT Results
  --------------------------------------------------------------------------------------------------------
    Electrostatics                -16.07567265 [mEh]     -10.08763689 [kcal/mol]     -42.20667274 [kJ/mol]
      Elst10,r                    -15.29887550 [mEh]      -9.60018932 [kcal/mol]     -40.16719210 [kJ/mol]
      Elst12,r                     -0.77679715 [mEh]      -0.48744757 [kcal/mol]      -2.03948064 [kJ/mol]

    Exchange                       20.43133655 [mEh]      12.82085725 [kcal/mol]      53.64246673 [kJ/mol]
      Exch10                       17.35824064 [mEh]      10.89246045 [kcal/mol]      45.57405451 [kJ/mol]
      Exch10(S^2)                  17.24801159 [mEh]      10.82329067 [kcal/mol]      45.28464818 [kJ/mol]
      Exch11(S^2)                   0.18085546 [mEh]       0.11348851 [kcal/mol]       0.47483595 [kJ/mol]
      Exch12(S^2)                   2.89224046 [mEh]       1.81490829 [kcal/mol]       7.59357627 [kJ/mol]

    Induction                      -5.26316725 [mEh]      -3.30268731 [kcal/mol]     -13.81844371 [kJ/mol]
      Ind20,r                      -7.14294914 [mEh]      -4.48226826 [kcal/mol]     -18.75381038 [kJ/mol]
      Ind22                        -1.34456133 [mEh]      -0.84372497 [kcal/mol]      -3.53014528 [kJ/mol]
      Exch-Ind20,r                  4.40350172 [mEh]       2.76323905 [kcal/mol]      11.56139217 [kJ/mol]
      Exch-Ind22                    0.82889826 [mEh]       0.52014151 [kcal/mol]       2.17627208 [kJ/mol]
      delta HF,r (2)               -2.00805677 [mEh]      -1.26007464 [kcal/mol]      -5.27215231 [kJ/mol]

    Dispersion                    -10.42367481 [mEh]      -6.54095469 [kcal/mol]     -27.36735443 [kJ/mol]
      Disp20                      -10.78079487 [mEh]      -6.76505092 [kcal/mol]     -28.30497304 [kJ/mol]
      Disp21                        0.72275083 [mEh]       0.45353299 [kcal/mol]       1.89758205 [kJ/mol]
      Disp22 (SDQ)                 -0.06054207 [mEh]      -0.03799072 [kcal/mol]      -0.15895318 [kJ/mol]
      Disp22 (T)                   -1.62290525 [mEh]      -1.01838842 [kcal/mol]      -4.26093715 [kJ/mol]
      Est. Disp22 (T)              -1.82199504 [mEh]      -1.14331915 [kcal/mol]      -4.78364731 [kJ/mol]
      Exch-Disp20                   1.51690634 [mEh]       0.95187310 [kcal/mol]       3.98263704 [kJ/mol]

  Total HF                         -2.68813905 [mEh]      -1.68683272 [kcal/mol]      -7.05770810 [kJ/mol]
  Total SAPT0                     -11.95202758 [mEh]      -7.50001054 [kcal/mol]     -31.38004410 [kJ/mol]
  Total SAPT2                     -10.17139188 [mEh]      -6.38264477 [kcal/mol]     -26.70498571 [kJ/mol]
  Total SAPT2+                    -11.33117816 [mEh]      -7.11042164 [kcal/mol]     -29.75000415 [kJ/mol]

  Special recipe for scaled SAPT0 (see Manual):
    Electrostatics sSAPT0         -15.29887550 [mEh]      -9.60018932 [kcal/mol]     -40.16719210 [kJ/mol]
    Exchange sSAPT0                17.35824064 [mEh]      10.89246045 [kcal/mol]      45.57405451 [kJ/mol]
    Induction sSAPT0               -4.66253744 [mEh]      -2.92578641 [kcal/mol]     -12.24149035 [kJ/mol]
    Dispersion sSAPT0              -9.23461942 [mEh]      -5.79481117 [kcal/mol]     -24.24548994 [kJ/mol]
  Total sSAPT0                    -11.83779172 [mEh]      -7.42832645 [kcal/mol]     -31.08011788 [kJ/mol]
  --------------------------------------------------------------------------------------------------------

*** Psi4 exiting successfully. Buy a developer a beer!
