                               Psi4 1.9 release

  ==> Input File <==

--------------------------------------------------------------------------
MEMORY 10 GB

molecule dimer {
0 1
C   -1.359238  -1.276617  -0.194769
C   -1.795535  -0.050991   0.558322
O   -2.438448   0.805954  -0.356792
H   -2.744775   1.588923   0.104506
H   -0.777921  -1.944983   0.443851
H   -0.752719  -0.984127  -1.057434
H   -2.221270  -1.824238  -0.578571
H   -0.923180   0.442868   1.012777
H   -2.468553  -0.333408   1.380240
--
0 1
C    1.510395   1.317368  -0.292271
C    2.006103   0.143513   0.515236
O    2.179281  -1.017326  -0.262173
H    1.337475  -1.228649  -0.676501
H    1.427019   2.213273   0.327594
H    0.520650   1.116582  -0.716269
H    2.193137   1.530555  -1.116883
H    1.327354  -0.048677   1.361561
H    2.985774   0.363226   0.947739

units ang
no_reorient
no_com
symmetry c1
}

set {
basis        aug-cc-pVTZ
scf_type     df
}

energy("sapt2+")
--------------------------------------------------------------------------

  //              Dimer HF             //
    Molecular point group: c1
  Charge       = 0
  Multiplicity = 1
  Basis Set: AUG-CC-PVTZ
    Blend: AUG-CC-PVTZ
  Basis Set: (AUG-CC-PVTZ AUX)
    Blend: AUG-CC-PVTZ-JKFIT
  @DF-RHF Final Energy:  -308.28710904188574
    Total Energy =                       -308.2871090418857420
 Dipole X            :         -0.6040550            0.0000094           -0.6040455
 Dipole Y            :          0.5106518            0.0000132            0.5106650
 Dipole Z            :          0.6982353           -0.0000038            0.6982315
 Magnitude           :                                                    1.0550721
  //            Monomer A HF           //
    Molecular point group: c1
  Multiplicity = 1
  Basis Set: AUG-CC-PVTZ
    Blend: AUG-CC-PVTZ
  Basis Set: (AUG-CC-PVTZ AUX)
    Blend: AUG-CC-PVTZ-JKFIT
  @DF-RHF Final Energy:  -154.14547470508865
    Total Energy =                       -154.1454747050886454
  //            Monomer B HF           //
    Molecular point group: c1

    Geometry (in Angstrom), charge = 0, multiplicity = 1:

       Center              X                  Y                   Z               Mass
    ------------   -----------------  -----------------  -----------------  -----------------
      Gh(C)          -1.359238000000    -1.276617000000    -0.194769000000    12.000000000000
      Gh(C)          -1.795535000000    -0.050991000000     0.558322000000    12.000000000000
      Gh(O)          -2.438448000000     0.805954000000    -0.356792000000    15.994914619570
      Gh(H)          -2.744775000000     1.588923000000     0.104506000000     1.007825032230
      Gh(H)          -0.777921000000    -1.944983000000     0.443851000000     1.007825032230
      Gh(H)          -0.752719000000    -0.984127000000    -1.057434000000     1.007825032230
      Gh(H)          -2.221270000000    -1.824238000000    -0.578571000000     1.007825032230
      Gh(H)          -0.923180000000     0.442868000000     1.012777000000     1.007825032230
      Gh(H)          -2.468553000000    -0.333408000000     1.380240000000     1.007825032230
         C            1.510395000000     1.317368000000    -0.292271000000    12.000000000000
         C            2.006103000000     0.143513000000     0.515236000000    12.000000000000
         O            2.179281000000    -1.017326000000    -0.262173000000    15.994914619570
         H            1.337475000000    -1.228649000000    -0.676501000000     1.007825032230
         H            1.427019000000     2.213273000000     0.327594000000     1.007825032230
         H            0.520650000000     1.116582000000    -0.716269000000     1.007825032230
         H            2.193137000000     1.530555000000    -1.116883000000     1.007825032230
         H            1.327354000000    -0.048677000000     1.361561000000     1.007825032230
         H            2.985774000000     0.363226000000     0.947739000000     1.007825032230

  Charge       = 0
  Multiplicity = 1
  Basis Set: AUG-CC-PVTZ
    Blend: AUG-CC-PVTZ
  Basis Set: (AUG-CC-PVTZ AUX)
    Blend: AUG-CC-PVTZ-JKFIT

    Orbital Energies [Eh]
    ---------------------

    Doubly Occupied:

       1A    -20.555893     2A    -11.273543     3A    -11.218462
       4A     -1.362916     5A     -1.014032     6A     -0.848262
       7A     -0.687481     8A     -0.626043     9A     -0.611830
      10A     -0.544401    11A     -0.526425    12A     -0.480956
      13A     -0.442448

  @DF-RHF Final Energy:  -154.14508168445869

   => Energetics <=

    Nuclear Repulsion Energy =             82.1435303938076515
    One-Electron Energy =                -372.1918355968081755
    Two-Electron Energy =                 135.9032235185418074
    Total Energy =                       -154.1450816844586882
 Dipole X            :        -91.8964277           91.3203442           -0.5760835
 Dipole Y            :         -8.2324446            8.6416949            0.4092503
 Dipole Z            :          1.2569951           -1.1949740            0.0620211
 Magnitude           :                                                    0.7093692

    SAPT Results
  --------------------------------------------------------------------------------------------------------
    Electrostatics                 -2.93485060 [mEh]      -1.84164656 [kcal/mol]      -7.70544919 [kJ/mol]
      Elst10,r                     -2.53311593 [mEh]      -1.58955425 [kcal/mol]      -6.65069497 [kJ/mol]
      Elst12,r                     -0.40173467 [mEh]      -0.25209231 [kcal/mol]      -1.05475422 [kJ/mol]

    Exchange                        7.96166160 [mEh]       4.99601808 [kcal/mol]      20.90333966 [kJ/mol]
      Exch10                        7.12266870 [mEh]       4.46954209 [kcal/mol]      18.70056409 [kJ/mol]
      Exch10(S^2)                   7.10584245 [mEh]       4.45898346 [kcal/mol]      18.65638679 [kJ/mol]
      Exch11(S^2)                   0.21500592 [mEh]       0.13491825 [kcal/mol]       0.56449796 [kJ/mol]
      Exch12(S^2)                   0.62398699 [mEh]       0.39155774 [kcal/mol]       1.63827760 [kJ/mol]

    Induction                      -1.19715650 [mEh]      -0.75122705 [kcal/mol]      -3.14313397 [kJ/mol]
      Ind20,r                      -1.82410599 [mEh]      -1.14464379 [kcal/mol]      -4.78918960 [kJ/mol]
      Ind22                        -0.16907794 [mEh]      -0.10609801 [kcal/mol]      -0.44391406 [kJ/mol]
      Exch-Ind20,r                  1.23126000 [mEh]       0.77262731 [kcal/mol]       3.23267268 [kJ/mol]
      Exch-Ind22                    0.11412654 [mEh]       0.07161548 [kcal/mol]       0.29963918 [kJ/mol]
      delta HF,r (2)               -0.54935912 [mEh]      -0.34472805 [kcal/mol]      -1.44234216 [kJ/mol]

    Dispersion                     -7.37191260 [mEh]      -4.62594500 [kcal/mol]     -19.35495388 [kJ/mol]
      Disp20                       -7.49372857 [mEh]      -4.70238567 [kcal/mol]     -19.67478164 [kJ/mol]
      Disp21                        0.31350351 [mEh]       0.19672643 [kcal/mol]       0.82310336 [kJ/mol]
      Disp22 (SDQ)                  0.23733929 [mEh]       0.14893265 [kcal/mol]       0.62313423 [kJ/mol]
      Disp22 (T)                   -1.04386232 [mEh]      -0.65503349 [kcal/mol]      -2.74066014 [kJ/mol]
      Est. Disp22 (T)              -1.16556563 [mEh]      -0.73140347 [kcal/mol]      -3.06019213 [kJ/mol]
      Exch-Disp20                   0.73653878 [mEh]       0.46218506 [kcal/mol]       1.93378230 [kJ/mol]

  Total HF                          3.44734766 [mEh]       2.16324332 [kcal/mol]       9.05101004 [kJ/mol]
  Total SAPT0                      -3.30984212 [mEh]      -2.07695729 [kcal/mol]      -8.68998929 [kJ/mol]
  Total SAPT2                      -2.92753528 [mEh]      -1.83705613 [kcal/mol]      -7.68624283 [kJ/mol]
  Total SAPT2+                     -3.54225810 [mEh]      -2.22280052 [kcal/mol]      -9.30019737 [kJ/mol]

  Special recipe for scaled SAPT0 (see Manual):
    Electrostatics sSAPT0          -2.53311593 [mEh]      -1.58955425 [kcal/mol]      -6.65069497 [kJ/mol]
    Exchange sSAPT0                 7.12266870 [mEh]       4.46954209 [kcal/mol]      18.70056409 [kJ/mol]
    Induction sSAPT0               -1.13343771 [mEh]      -0.71124290 [kcal/mol]      -2.97584029 [kJ/mol]
    Dispersion sSAPT0              -6.75194513 [mEh]      -4.23690954 [kcal/mol]     -17.72722951 [kJ/mol]
  Total sSAPT0                     -3.29583008 [mEh]      -2.06816460 [kcal/mol]      -8.65320067 [kJ/mol]
  --------------------------------------------------------------------------------------------------------

*** Psi4 exiting successfully. Buy a developer a beer!
