                               Psi4 1.9 release

  ==> Input File <==

--------------------------------------------------------------------------
MEMORY 10 GB

molecule dimer {
0 1
C    2.029754   1.123131  -0.290571
C    1.890340  -0.376706  -0.296268
O    1.144521  -0.851246   0.810495
H    1.540555  -0.528261   1.623714
H    2.574105   1.469398  -1.171008
H    2.579304   1.463015   0.592339
H    1.046994   1.600385  -0.283454
H    2.875799  -0.859264  -0.326945
H    1.341500  -0.713398  -1.179928
--
0 1
C   -2.047126   0.925428   0.637739
C   -1.738244   0.151549  -0.621663
O   -1.422060  -1.189958  -0.368607
H   -0.641977  -1.205023   0.205750
H   -2.319559   1.959603   0.413595
H   -1.176827   0.940892   1.300407
H   -2.872421   0.458961   1.179293
H   -0.928504   0.655062  -1.177321
H   -2.607004   0.147853  -1.286962

units ang
no_reorient
no_com
symmetry c1
}

set {
basis        aug-cc-pVTZ
scf_type     df
}

energy("sapt2+")
--------------------------------------------------------------------------

  //              Dimer HF             //
    Molecular point group: c1
  Charge       = 0
  Multiplicity = 1
  Basis Set: AUG-CC-PVTZ
    Blend: AUG-CC-PVTZ
  Basis Set: (AUG-CC-PVTZ AUX)
    Blend: AUG-CC-PVTZ-JKFIT
  @DF-RHF Final Energy:  -308.29271161951539
    Total Energy =                       -308.2927116195153872
 Dipole X            :          1.1241773           -0.0000057            1.1241716
 Dipole Y            :          0.9616083            0.0000057            0.9616140
 Dipole Z            :          0.3158694            0.0000113            0.3158807
 Magnitude           :                                                    1.5126943
  //            Monomer A HF           //
    Molecular point group: c1
  Multiplicity = 1
  Basis Set: AUG-CC-PVTZ
    Blend: AUG-CC-PVTZ
  Basis Set: (AUG-CC-PVTZ AUX)
    Blend: AUG-CC-PVTZ-JKFIT
  @DF-RHF Final Energy:  -154.14515477434313
    Total Energy =                       -154.1451547743431263
  //            Monomer B HF           //
    Molecular point group: c1

    Geometry (in Angstrom), charge = 0, multiplicity = 1:

       Center              X                  Y                   Z               Mass
    ------------   -----------------  -----------------  -----------------  -----------------
      Gh(C)           2.029754000000     1.123131000000    -0.290571000000    12.000000000000
      Gh(C)           1.890340000000    -0.376706000000    -0.296268000000    12.000000000000
      Gh(O)           1.144521000000    -0.851246000000     0.810495000000    15.994914619570
      Gh(H)           1.540555000000    -0.528261000000     1.623714000000     1.007825032230
      Gh(H)           2.574105000000     1.469398000000    -1.171008000000     1.007825032230
      Gh(H)           2.579304000000     1.463015000000     0.592339000000     1.007825032230
      Gh(H)           1.046994000000     1.600385000000    -0.283454000000     1.007825032230
      Gh(H)           2.875799000000    -0.859264000000    -0.326945000000     1.007825032230
      Gh(H)           1.341500000000    -0.713398000000    -1.179928000000     1.007825032230
         C           -2.047126000000     0.925428000000     0.637739000000    12.000000000000
         C           -1.738244000000     0.151549000000    -0.621663000000    12.000000000000
         O           -1.422060000000    -1.189958000000    -0.368607000000    15.994914619570
         H           -0.641977000000    -1.205023000000     0.205750000000     1.007825032230
         H           -2.319559000000     1.959603000000     0.413595000000     1.007825032230
         H           -1.176827000000     0.940892000000     1.300407000000     1.007825032230
         H           -2.872421000000     0.458961000000     1.179293000000     1.007825032230
         H           -0.928504000000     0.655062000000    -1.177321000000     1.007825032230
         H           -2.607004000000     0.147853000000    -1.286962000000     1.007825032230

  Charge       = 0
  Multiplicity = 1
  Basis Set: AUG-CC-PVTZ
    Blend: AUG-CC-PVTZ
  Basis Set: (AUG-CC-PVTZ AUX)
    Blend: AUG-CC-PVTZ-JKFIT

    Orbital Energies [Eh]
    ---------------------

    Doubly Occupied:

       1A    -20.557551     2A    -11.273275     3A    -11.217659
       4A     -1.364550     5A     -1.013020     6A     -0.847043
       7A     -0.688726     8A     -0.627778     9A     -0.609864
      10A     -0.545173    11A     -0.527411    12A     -0.479261
      13A     -0.441779

  @DF-RHF Final Energy:  -154.14462692284496

   => Energetics <=

    Nuclear Repulsion Energy =             82.2137395269930522
    One-Electron Energy =                -372.3305524969944145
    Two-Electron Energy =                 135.9721860471564128
    Total Energy =                       -154.1446269228449637
 Dipole X            :         84.6560848          -84.3479105            0.3081743
 Dipole Y            :          0.7631951           -0.1898305            0.5733646
 Dipole Z            :          4.4555112           -4.1907285            0.2647827
 Magnitude           :                                                    0.7027291

    SAPT Results
  --------------------------------------------------------------------------------------------------------
    Electrostatics                -14.53359338 [mEh]      -9.11996754 [kcal/mol]     -38.15794417 [kJ/mol]
      Elst10,r                    -14.17942308 [mEh]      -8.89772232 [kcal/mol]     -37.22807018 [kJ/mol]
      Elst12,r                     -0.35417030 [mEh]      -0.22224522 [kcal/mol]      -0.92987400 [kJ/mol]

    Exchange                       18.36386983 [mEh]      11.52350229 [kcal/mol]      48.21433359 [kJ/mol]
      Exch10                       15.69907041 [mEh]       9.85131541 [kcal/mol]      41.21790369 [kJ/mol]
      Exch10(S^2)                  15.59941548 [mEh]       9.78878100 [kcal/mol]      40.95625971 [kJ/mol]
      Exch11(S^2)                   0.16742014 [mEh]       0.10505772 [kcal/mol]       0.43956151 [kJ/mol]
      Exch12(S^2)                   2.49737928 [mEh]       1.56712916 [kcal/mol]       6.55686839 [kJ/mol]

    Induction                      -4.89799706 [mEh]      -3.07353956 [kcal/mol]     -12.85968950 [kJ/mol]
      Ind20,r                      -6.40044295 [mEh]      -4.01633859 [kcal/mol]     -16.80436066 [kJ/mol]
      Ind22                        -1.12405354 [mEh]      -0.70535425 [kcal/mol]      -2.95120217 [kJ/mol]
      Exch-Ind20,r                  3.84706460 [mEh]       2.41406948 [kcal/mol]      10.10046672 [kJ/mol]
      Exch-Ind22                    0.67562614 [mEh]       0.42396181 [kcal/mol]       1.77385620 [kJ/mol]
      delta HF,r (2)               -1.89619130 [mEh]      -1.18987801 [kcal/mol]      -4.97844958 [kJ/mol]

    Dispersion                     -9.64487745 [mEh]      -6.05225197 [kcal/mol]     -25.32262225 [kJ/mol]
      Disp20                       -9.93449186 [mEh]      -6.23398776 [kcal/mol]     -26.08300478 [kJ/mol]
      Disp21                        0.64586924 [mEh]       0.40528907 [kcal/mol]       1.69572946 [kJ/mol]
      Disp22 (SDQ)                 -0.03108104 [mEh]      -0.01950365 [kcal/mol]      -0.08160326 [kJ/mol]
      Disp22 (T)                   -1.48701669 [mEh]      -0.93311706 [kcal/mol]      -3.90416179 [kJ/mol]
      Est. Disp22 (T)              -1.67532518 [mEh]      -1.05128242 [kcal/mol]      -4.39856565 [kJ/mol]
      Exch-Disp20                   1.35015138 [mEh]       0.84723278 [kcal/mol]       3.54482197 [kJ/mol]

  Total HF                         -2.92992233 [mEh]      -1.83855402 [kcal/mol]      -7.69251001 [kJ/mol]
  Total SAPT0                     -11.51426280 [mEh]      -7.22530899 [kcal/mol]     -30.23069282 [kJ/mol]
  Total SAPT2                      -9.65206109 [mEh]      -6.05675977 [kcal/mol]     -25.34148289 [kJ/mol]
  Total SAPT2+                    -10.71259806 [mEh]      -6.72225677 [kcal/mol]     -28.12592234 [kJ/mol]

  Special recipe for scaled SAPT0 (see Manual):
    Electrostatics sSAPT0         -14.17942308 [mEh]      -8.89772232 [kcal/mol]     -37.22807018 [kJ/mol]
    Exchange sSAPT0                15.69907041 [mEh]       9.85131541 [kcal/mol]      41.21790369 [kJ/mol]
    Induction sSAPT0               -4.37536816 [mEh]      -2.74558497 [kcal/mol]     -11.48752752 [kJ/mol]
    Dispersion sSAPT0              -8.55829899 [mEh]      -5.37041370 [kcal/mol]     -22.46981091 [kJ/mol]
  Total sSAPT0                    -11.41401982 [mEh]      -7.16240557 [kcal/mol]     -29.96750492 [kJ/mol]
  --------------------------------------------------------------------------------------------------------

*** Psi4 exiting successfully. Buy a developer a beer!
