                               Psi4 1.9.1 release

  ==> Input File <==

--------------------------------------------------------------------------
MEMORY 10 GB

molecule dimer {
0 1
C   -1.475476   0.559489  -0.311796
C   -2.845680  -0.030863  -0.532347
O   -3.351979  -0.661248   0.620729
H   -3.399111  -0.010457   1.325488
H   -1.080118   1.002664  -1.228730
H   -0.778691  -0.210094   0.028275
H   -1.505016   1.345121   0.449598
H   -2.807199  -0.804793  -1.303177
H   -3.538143   0.741653  -0.897109
--
0 1
C    2.033266   0.985127   0.594046
C    2.482344   0.039189  -0.491480
O    3.199458  -1.062061   0.013739
H    2.638174  -1.527834   0.638715
H    1.511086   1.848424   0.175115
H    2.888577   1.342142   1.170665
H    1.344434   0.487393   1.284161
H    3.161241   0.546368  -1.181959
H    1.618213  -0.291760  -1.087322

units ang
no_reorient
no_com
symmetry c1
}

set {
basis        aug-cc-pVTZ
scf_type     df
}

energy("sapt2+")
--------------------------------------------------------------------------

  //              Dimer HF             //
    Molecular point group: c1
  Charge       = 0
  Multiplicity = 1
  Basis Set: AUG-CC-PVTZ
    Blend: AUG-CC-PVTZ
  Basis Set: (AUG-CC-PVTZ AUX)
    Blend: AUG-CC-PVTZ-JKFIT
  @DF-RHF Final Energy:  -308.28878169723436
    Total Energy =                       -308.2887816972343558
 Dipole X            :         -0.4329173            0.0000057           -0.4329116
 Dipole Y            :          0.8903199            0.0000132            0.8903331
 Dipole Z            :          0.1087224            0.0000038            0.1087262
 Magnitude           :                                                    0.9959553
  //            Monomer A HF           //
    Molecular point group: c1
  Multiplicity = 1
  Basis Set: AUG-CC-PVTZ
    Blend: AUG-CC-PVTZ
  Basis Set: (AUG-CC-PVTZ AUX)
    Blend: AUG-CC-PVTZ-JKFIT
  @DF-RHF Final Energy:  -154.14513443822389
    Total Energy =                       -154.1451344382238915
  //            Monomer B HF           //
    Molecular point group: c1

    Geometry (in Angstrom), charge = 0, multiplicity = 1:

       Center              X                  Y                   Z               Mass
    ------------   -----------------  -----------------  -----------------  -----------------
      Gh(C)          -1.475476000000     0.559489000000    -0.311796000000    12.000000000000
      Gh(C)          -2.845680000000    -0.030863000000    -0.532347000000    12.000000000000
      Gh(O)          -3.351979000000    -0.661248000000     0.620729000000    15.994914619570
      Gh(H)          -3.399111000000    -0.010457000000     1.325488000000     1.007825032230
      Gh(H)          -1.080118000000     1.002664000000    -1.228730000000     1.007825032230
      Gh(H)          -0.778691000000    -0.210094000000     0.028275000000     1.007825032230
      Gh(H)          -1.505016000000     1.345121000000     0.449598000000     1.007825032230
      Gh(H)          -2.807199000000    -0.804793000000    -1.303177000000     1.007825032230
      Gh(H)          -3.538143000000     0.741653000000    -0.897109000000     1.007825032230
         C            2.033266000000     0.985127000000     0.594046000000    12.000000000000
         C            2.482344000000     0.039189000000    -0.491480000000    12.000000000000
         O            3.199458000000    -1.062061000000     0.013739000000    15.994914619570
         H            2.638174000000    -1.527834000000     0.638715000000     1.007825032230
         H            1.511086000000     1.848424000000     0.175115000000     1.007825032230
         H            2.888577000000     1.342142000000     1.170665000000     1.007825032230
         H            1.344434000000     0.487393000000     1.284161000000     1.007825032230
         H            3.161241000000     0.546368000000    -1.181959000000     1.007825032230
         H            1.618213000000    -0.291760000000    -1.087322000000     1.007825032230

  Charge       = 0
  Multiplicity = 1
  Basis Set: AUG-CC-PVTZ
    Blend: AUG-CC-PVTZ
  Basis Set: (AUG-CC-PVTZ AUX)
    Blend: AUG-CC-PVTZ-JKFIT

    Orbital Energies [Eh]
    ---------------------

    Doubly Occupied:

       1A    -20.555717     2A    -11.273377     3A    -11.218136
       4A     -1.363043     5A     -1.014186     6A     -0.848383
       7A     -0.688117     8A     -0.626206     9A     -0.611415
      10A     -0.544647    11A     -0.526242    12A     -0.480609
      13A     -0.442778

  @DF-RHF Final Energy:  -154.14512808299344

   => Energetics <=

    Nuclear Repulsion Energy =             82.1715450665927847
    One-Electron Energy =                -372.2476278635435847
    Two-Electron Energy =                 135.9309547139573624
    Total Energy =                       -154.1451280829934376
 Dipole X            :       -125.0845597          124.4404477           -0.6441121
 Dipole Y            :          0.1257114            0.1023117            0.2280231
 Dipole Z            :         -3.0753140            3.2591785            0.1838645
 Magnitude           :                                                    0.7075882

    SAPT Results
  --------------------------------------------------------------------------------------------------------
    Electrostatics                 -0.71922835 [mEh]      -0.45132260 [kcal/mol]      -1.88833376 [kJ/mol]
      Elst10,r                     -0.57276416 [mEh]      -0.35941494 [kcal/mol]      -1.50379210 [kJ/mol]
      Elst12,r                     -0.14646418 [mEh]      -0.09190766 [kcal/mol]      -0.38454166 [kJ/mol]

    Exchange                        2.46101058 [mEh]       1.54430745 [kcal/mol]       6.46138239 [kJ/mol]
      Exch10                        2.22237285 [mEh]       1.39456002 [kcal/mol]       5.83483913 [kJ/mol]
      Exch10(S^2)                   2.21944304 [mEh]       1.39272153 [kcal/mol]       5.82714689 [kJ/mol]
      Exch11(S^2)                   0.06700595 [mEh]       0.04204687 [kcal/mol]       0.17592410 [kJ/mol]
      Exch12(S^2)                   0.17163177 [mEh]       0.10770056 [kcal/mol]       0.45061916 [kJ/mol]

    Induction                      -0.17516310 [mEh]      -0.10991650 [kcal/mol]      -0.45989065 [kJ/mol]
      Ind20,r                      -0.35611585 [mEh]      -0.22346607 [kcal/mol]      -0.93498203 [kJ/mol]
      Ind22                        -0.05073713 [mEh]      -0.03183803 [kcal/mol]      -0.13321031 [kJ/mol]
      Exch-Ind20,r                  0.31134693 [mEh]       0.19537315 [kcal/mol]       0.81744126 [kJ/mol]
      Exch-Ind22                    0.04435874 [mEh]       0.02783553 [kcal/mol]       0.11646384 [kJ/mol]
      delta HF,r (2)               -0.12401580 [mEh]      -0.07782109 [kcal/mol]      -0.32560343 [kJ/mol]

    Dispersion                     -3.15822094 [mEh]      -1.98181356 [kcal/mol]      -8.29190793 [kJ/mol]
      Disp20                       -3.14443275 [mEh]      -1.97316134 [kcal/mol]      -8.25570705 [kJ/mol]
      Disp21                        0.04479681 [mEh]       0.02811042 [kcal/mol]       0.11761402 [kJ/mol]
      Disp22 (SDQ)                  0.16115507 [mEh]       0.10112633 [kcal/mol]       0.42311258 [kJ/mol]
      Disp22 (T)                   -0.42032610 [mEh]      -0.26375861 [kcal/mol]      -1.10356603 [kJ/mol]
      Est. Disp22 (T)              -0.47036940 [mEh]      -0.29516125 [kcal/mol]      -1.23495468 [kJ/mol]
      Exch-Disp20                   0.25062933 [mEh]       0.15727228 [kcal/mol]       0.65802721 [kJ/mol]

  Total HF                          1.48082398 [mEh]       0.92923108 [kcal/mol]       3.88790283 [kJ/mol]
  Total SAPT0                      -1.41297944 [mEh]      -0.88665799 [kcal/mol]      -3.70977701 [kJ/mol]
  Total SAPT2                      -1.32718429 [mEh]      -0.83282072 [kcal/mol]      -3.48452187 [kJ/mol]
  Total SAPT2+                     -1.59160180 [mEh]      -0.99874521 [kcal/mol]      -4.17874996 [kJ/mol]

  Special recipe for scaled SAPT0 (see Manual):
    Electrostatics sSAPT0          -0.57276416 [mEh]      -0.35941494 [kcal/mol]      -1.50379210 [kJ/mol]
    Exchange sSAPT0                 2.22237285 [mEh]       1.39456002 [kcal/mol]       5.83483913 [kJ/mol]
    Induction sSAPT0               -0.16755008 [mEh]      -0.10513926 [kcal/mol]      -0.43990268 [kJ/mol]
    Dispersion sSAPT0              -2.89280957 [mEh]      -1.81526541 [kcal/mol]      -7.59507048 [kJ/mol]
  Total sSAPT0                     -1.41075096 [mEh]      -0.88525959 [kcal/mol]      -3.70392614 [kJ/mol]
  --------------------------------------------------------------------------------------------------------

*** Psi4 exiting successfully. Buy a developer a beer!
