                               Psi4 1.9 release

  ==> Input File <==

--------------------------------------------------------------------------
MEMORY 10 GB

molecule dimer {
0 1
C    3.091608  -0.342234   0.342496
C    1.814243   0.409338   0.088232
O    0.991026  -0.373677  -0.734281
H    0.159052   0.105580  -0.864495
H    3.767231   0.232535   0.978342
H    3.599214  -0.554477  -0.600236
H    2.880557  -1.295081   0.831645
H    2.039216   1.378884  -0.384019
H    1.317600   0.635034   1.047193
--
0 1
C   -2.437412  -1.052507  -0.034130
C   -1.988643   0.222921   0.618674
O   -1.453155   1.068303  -0.390085
H   -1.235118   1.920523  -0.005591
H   -2.870756  -1.728542   0.704209
H   -1.592558  -1.558597  -0.505015
H   -3.188197  -0.847469  -0.799105
H   -1.227429   0.010861   1.382310
H   -2.830557   0.718637   1.118065

units ang
no_reorient
no_com
symmetry c1
}

set {
basis        aug-cc-pVTZ
scf_type     df
}

energy("sapt2+")
--------------------------------------------------------------------------

  //              Dimer HF             //
    Molecular point group: c1
  Charge       = 0
  Multiplicity = 1
  Basis Set: AUG-CC-PVTZ
    Blend: AUG-CC-PVTZ
  Basis Set: (AUG-CC-PVTZ AUX)
    Blend: AUG-CC-PVTZ-JKFIT
  @DF-RHF Final Energy:  -308.29388627243151
    Total Energy =                       -308.2938862724315072
 Dipole X            :         -0.4870463           -0.0000019           -0.4870482
 Dipole Y            :          0.7219932            0.0000076            0.7220007
 Dipole Z            :          0.8851250            0.0000132            0.8851382
 Magnitude           :                                                    1.2417611
  //            Monomer A HF           //
    Molecular point group: c1
  Multiplicity = 1
  Basis Set: AUG-CC-PVTZ
    Blend: AUG-CC-PVTZ
  Basis Set: (AUG-CC-PVTZ AUX)
    Blend: AUG-CC-PVTZ-JKFIT
  @DF-RHF Final Energy:  -154.14499910571618
    Total Energy =                       -154.1449991057161810
  //            Monomer B HF           //
    Molecular point group: c1

    Geometry (in Angstrom), charge = 0, multiplicity = 1:

       Center              X                  Y                   Z               Mass
    ------------   -----------------  -----------------  -----------------  -----------------
      Gh(C)           3.091608000000    -0.342234000000     0.342496000000    12.000000000000
      Gh(C)           1.814243000000     0.409338000000     0.088232000000    12.000000000000
      Gh(O)           0.991026000000    -0.373677000000    -0.734281000000    15.994914619570
      Gh(H)           0.159052000000     0.105580000000    -0.864495000000     1.007825032230
      Gh(H)           3.767231000000     0.232535000000     0.978342000000     1.007825032230
      Gh(H)           3.599214000000    -0.554477000000    -0.600236000000     1.007825032230
      Gh(H)           2.880557000000    -1.295081000000     0.831645000000     1.007825032230
      Gh(H)           2.039216000000     1.378884000000    -0.384019000000     1.007825032230
      Gh(H)           1.317600000000     0.635034000000     1.047193000000     1.007825032230
         C           -2.437412000000    -1.052507000000    -0.034130000000    12.000000000000
         C           -1.988643000000     0.222921000000     0.618674000000    12.000000000000
         O           -1.453155000000     1.068303000000    -0.390085000000    15.994914619570
         H           -1.235118000000     1.920523000000    -0.005591000000     1.007825032230
         H           -2.870756000000    -1.728542000000     0.704209000000     1.007825032230
         H           -1.592558000000    -1.558597000000    -0.505015000000     1.007825032230
         H           -3.188197000000    -0.847469000000    -0.799105000000     1.007825032230
         H           -1.227429000000     0.010861000000     1.382310000000     1.007825032230
         H           -2.830557000000     0.718637000000     1.118065000000     1.007825032230

  Charge       = 0
  Multiplicity = 1
  Basis Set: AUG-CC-PVTZ
    Blend: AUG-CC-PVTZ
  Basis Set: (AUG-CC-PVTZ AUX)
    Blend: AUG-CC-PVTZ-JKFIT

    Orbital Energies [Eh]
    ---------------------

    Doubly Occupied:

       1A    -20.554709     2A    -11.274124     3A    -11.211288
       4A     -1.357576     5A     -1.014827     6A     -0.833452
       7A     -0.700309     8A     -0.645630     9A     -0.571909
      10A     -0.533299    11A     -0.524806    12A     -0.489650
      13A     -0.440926

  @DF-RHF Final Energy:  -154.14555644309047

   => Energetics <=

    Nuclear Repulsion Energy =             82.0996758909111577
    One-Electron Energy =                -372.1854520964409403
    Two-Electron Energy =                 135.9402197624393125
    Total Energy =                       -154.1455564430904701
 Dipole X            :         96.5118677          -96.6144875           -0.1026198
 Dipole Y            :         -3.7947584            3.9387958            0.1440375
 Dipole Z            :         -3.6689370            4.3113289            0.6423919
 Magnitude           :                                                    0.6662920

    SAPT Results
  --------------------------------------------------------------------------------------------------------
    Electrostatics                -15.10365596 [mEh]      -9.47768720 [kcal/mol]     -39.65464325 [kJ/mol]
      Elst10,r                    -14.21930319 [mEh]      -8.92274746 [kcal/mol]     -37.33277538 [kJ/mol]
      Elst12,r                     -0.88435276 [mEh]      -0.55493974 [kcal/mol]      -2.32186786 [kJ/mol]

    Exchange                       18.28953780 [mEh]      11.47685824 [kcal/mol]      48.01917489 [kJ/mol]
      Exch10                       15.32362946 [mEh]       9.61572266 [kcal/mol]      40.23218359 [kJ/mol]
      Exch10(S^2)                  15.20489048 [mEh]       9.54121282 [kcal/mol]      39.92043444 [kJ/mol]
      Exch11(S^2)                   0.13162487 [mEh]       0.08259586 [kcal/mol]       0.34558106 [kJ/mol]
      Exch12(S^2)                   2.83428347 [mEh]       1.77853973 [kcal/mol]       7.44141024 [kJ/mol]

    Induction                      -4.98380806 [mEh]      -3.12738677 [kcal/mol]     -13.08498625 [kJ/mol]
      Ind20,r                      -6.77951567 [mEh]      -4.25421031 [kcal/mol]     -17.79961595 [kJ/mol]
      Ind22                        -1.45135574 [mEh]      -0.91073948 [kcal/mol]      -3.81053397 [kJ/mol]
      Exch-Ind20,r                  4.21617818 [mEh]       2.64569175 [kcal/mol]      11.06957428 [kJ/mol]
      Exch-Ind22                    0.90259757 [mEh]       0.56638853 [kcal/mol]       2.36976961 [kJ/mol]
      delta HF,r (2)               -1.87171239 [mEh]      -1.17451726 [kcal/mol]      -4.91418021 [kJ/mol]

    Dispersion                     -8.42507312 [mEh]      -5.28681320 [kcal/mol]     -22.12002644 [kJ/mol]
      Disp20                       -8.56448471 [mEh]      -5.37429529 [kcal/mol]     -22.48605151 [kJ/mol]
      Disp21                        0.47355020 [mEh]       0.29715724 [kcal/mol]       1.24330589 [kJ/mol]
      Disp22 (SDQ)                 -0.10726893 [mEh]      -0.06731227 [kcal/mol]      -0.28163454 [kJ/mol]
      Disp22 (T)                   -1.33545336 [mEh]      -0.83800964 [kcal/mol]      -3.50623232 [kJ/mol]
      Est. Disp22 (T)              -1.51082064 [mEh]      -0.94805426 [kcal/mol]      -3.96665904 [kJ/mol]
      Exch-Disp20                   1.28395095 [mEh]       0.80569139 [kcal/mol]       3.37101276 [kJ/mol]

  Total HF                         -3.33072362 [mEh]      -2.09006063 [kcal/mol]      -8.74481367 [kJ/mol]
  Total SAPT0                     -10.61125738 [mEh]      -6.65866454 [kcal/mol]     -27.85985242 [kJ/mol]
  Total SAPT2                      -9.07845996 [mEh]      -5.69681963 [kcal/mol]     -23.83549335 [kJ/mol]
  Total SAPT2+                    -10.22299933 [mEh]      -6.41502893 [kcal/mol]     -26.84048104 [kJ/mol]

  Special recipe for scaled SAPT0 (see Manual):
    Electrostatics sSAPT0         -14.21930319 [mEh]      -8.92274746 [kcal/mol]     -37.33277538 [kJ/mol]
    Exchange sSAPT0                15.32362946 [mEh]       9.61572266 [kcal/mol]      40.23218359 [kJ/mol]
    Induction sSAPT0               -4.33550079 [mEh]      -2.72056782 [kcal/mol]     -11.38285576 [kJ/mol]
    Dispersion sSAPT0              -7.25021811 [mEh]      -4.54958055 [kcal/mol]     -19.03544503 [kJ/mol]
  Total sSAPT0                    -10.48139264 [mEh]      -6.57717318 [kcal/mol]     -27.51889258 [kJ/mol]
  --------------------------------------------------------------------------------------------------------

*** Psi4 exiting successfully. Buy a developer a beer!
