                               Psi4 1.9 release

  ==> Input File <==

--------------------------------------------------------------------------
MEMORY 10 GB

molecule dimer {
0 1
C    1.664047  -1.098168  -0.483407
C    1.645436   0.172621   0.316483
O    2.803731   0.913154  -0.006258
H    2.810292   1.720736   0.510250
H    0.786578  -1.702859  -0.249187
H    2.561646  -1.677310  -0.258297
H    1.668226  -0.876731  -1.553158
H    1.608592  -0.061279   1.389819
H    0.733727   0.745832   0.090323
--
0 1
C   -2.523852   1.090249  -0.196029
C   -1.977141  -0.294805  -0.431995
O   -1.428621  -0.864125   0.736200
H   -2.110319  -0.890671   1.412321
H   -2.907636   1.526431  -1.120447
H   -1.745682   1.746778   0.199147
H   -3.345613   1.068408   0.525988
H   -1.158836  -0.264706  -1.157724
H   -2.752790  -0.946241  -0.858887

units ang
no_reorient
no_com
symmetry c1
}

set {
basis        aug-cc-pVTZ
scf_type     df
}

energy("sapt2+")
--------------------------------------------------------------------------

  //              Dimer HF             //
    Molecular point group: c1
  Charge       = 0
  Multiplicity = 1
  Basis Set: AUG-CC-PVTZ
    Blend: AUG-CC-PVTZ
  Basis Set: (AUG-CC-PVTZ AUX)
    Blend: AUG-CC-PVTZ-JKFIT
  @DF-RHF Final Energy:  -308.28904481878578
    Total Energy =                       -308.2890448187857828
 Dipole X            :         -1.2436060            0.0000094           -1.2435965
 Dipole Y            :          0.3930878            0.0000038            0.3930916
 Dipole Z            :          0.3867843           -0.0000076            0.3867768
 Magnitude           :                                                    1.3603858
  //            Monomer A HF           //
    Molecular point group: c1
  Multiplicity = 1
  Basis Set: AUG-CC-PVTZ
    Blend: AUG-CC-PVTZ
  Basis Set: (AUG-CC-PVTZ AUX)
    Blend: AUG-CC-PVTZ-JKFIT
  @DF-RHF Final Energy:  -154.14555942781817
    Total Energy =                       -154.1455594278181707
  //            Monomer B HF           //
    Molecular point group: c1

    Geometry (in Angstrom), charge = 0, multiplicity = 1:

       Center              X                  Y                   Z               Mass
    ------------   -----------------  -----------------  -----------------  -----------------
      Gh(C)           1.664047000000    -1.098168000000    -0.483407000000    12.000000000000
      Gh(C)           1.645436000000     0.172621000000     0.316483000000    12.000000000000
      Gh(O)           2.803731000000     0.913154000000    -0.006258000000    15.994914619570
      Gh(H)           2.810292000000     1.720736000000     0.510250000000     1.007825032230
      Gh(H)           0.786578000000    -1.702859000000    -0.249187000000     1.007825032230
      Gh(H)           2.561646000000    -1.677310000000    -0.258297000000     1.007825032230
      Gh(H)           1.668226000000    -0.876731000000    -1.553158000000     1.007825032230
      Gh(H)           1.608592000000    -0.061279000000     1.389819000000     1.007825032230
      Gh(H)           0.733727000000     0.745832000000     0.090323000000     1.007825032230
         C           -2.523852000000     1.090249000000    -0.196029000000    12.000000000000
         C           -1.977141000000    -0.294805000000    -0.431995000000    12.000000000000
         O           -1.428621000000    -0.864125000000     0.736200000000    15.994914619570
         H           -2.110319000000    -0.890671000000     1.412321000000     1.007825032230
         H           -2.907636000000     1.526431000000    -1.120447000000     1.007825032230
         H           -1.745682000000     1.746778000000     0.199147000000     1.007825032230
         H           -3.345613000000     1.068408000000     0.525988000000     1.007825032230
         H           -1.158836000000    -0.264706000000    -1.157724000000     1.007825032230
         H           -2.752790000000    -0.946241000000    -0.858887000000     1.007825032230

  Charge       = 0
  Multiplicity = 1
  Basis Set: AUG-CC-PVTZ
    Blend: AUG-CC-PVTZ
  Basis Set: (AUG-CC-PVTZ AUX)
    Blend: AUG-CC-PVTZ-JKFIT

    Orbital Energies [Eh]
    ---------------------

    Doubly Occupied:

       1A    -20.555302     2A    -11.273522     3A    -11.218202
       4A     -1.361793     5A     -1.014432     6A     -0.848468
       7A     -0.687438     8A     -0.625733     9A     -0.611522
      10A     -0.544127    11A     -0.526266    12A     -0.480697
      13A     -0.443109

  @DF-RHF Final Energy:  -154.14516563774919

   => Energetics <=

    Nuclear Repulsion Energy =             82.1411939099586448
    One-Electron Energy =                -372.1914915614235042
    Two-Electron Energy =                 135.9051320137156722
    Total Energy =                       -154.1451656377491872
 Dipole X            :         98.4793060          -99.1270995           -0.6477935
 Dipole Y            :          0.0854469            0.1883358            0.2737826
 Dipole Z            :         -2.2180693            2.1199968           -0.0980725
 Magnitude           :                                                    0.7100785

    SAPT Results
  --------------------------------------------------------------------------------------------------------
    Electrostatics                 -3.24172109 [mEh]      -2.03421070 [kcal/mol]      -8.51113756 [kJ/mol]
      Elst10,r                     -2.92760590 [mEh]      -1.83710044 [kcal/mol]      -7.68642824 [kJ/mol]
      Elst12,r                     -0.31411519 [mEh]      -0.19711026 [kcal/mol]      -0.82470932 [kJ/mol]

    Exchange                        6.30449733 [mEh]       3.95613180 [kcal/mol]      16.55245545 [kJ/mol]
      Exch10                        5.49443676 [mEh]       3.44781112 [kcal/mol]      14.42564174 [kJ/mol]
      Exch10(S^2)                   5.48208559 [mEh]       3.44006065 [kcal/mol]      14.39321374 [kJ/mol]
      Exch11(S^2)                   0.04836346 [mEh]       0.03034853 [kcal/mol]       0.12697825 [kJ/mol]
      Exch12(S^2)                   0.76169710 [mEh]       0.47797215 [kcal/mol]       1.99983546 [kJ/mol]

    Induction                      -0.94865110 [mEh]      -0.59528755 [kcal/mol]      -2.49068312 [kJ/mol]
      Ind20,r                      -1.61955949 [mEh]      -1.01628893 [kcal/mol]      -4.25215287 [kJ/mol]
      Ind22                        -0.20572970 [mEh]      -0.12909734 [kcal/mol]      -0.54014326 [kJ/mol]
      Exch-Ind20,r                  1.13095126 [mEh]       0.70968263 [kcal/mol]       2.96931212 [kJ/mol]
      Exch-Ind22                    0.14366269 [mEh]       0.09014970 [kcal/mol]       0.37718633 [kJ/mol]
      delta HF,r (2)               -0.39797585 [mEh]      -0.24973361 [kcal/mol]      -1.04488544 [kJ/mol]

    Dispersion                     -5.97386641 [mEh]      -3.74865777 [kcal/mol]     -15.68438409 [kJ/mol]
      Disp20                       -6.12358851 [mEh]      -3.84260980 [kcal/mol]     -16.07747942 [kJ/mol]
      Disp21                        0.36316084 [mEh]       0.22788687 [kcal/mol]       0.95347865 [kJ/mol]
      Disp22 (SDQ)                  0.12448674 [mEh]       0.07811661 [kcal/mol]       0.32683988 [kJ/mol]
      Disp22 (T)                   -0.86313467 [mEh]      -0.54162518 [kcal/mol]      -2.26615975 [kJ/mol]
      Est. Disp22 (T)              -0.96465286 [mEh]      -0.60532881 [kcal/mol]      -2.53269573 [kJ/mol]
      Exch-Disp20                   0.62672738 [mEh]       0.39327737 [kcal/mol]       1.64547252 [kJ/mol]

  Total HF                          1.68024678 [mEh]       1.05437077 [kcal/mol]       4.41148732 [kJ/mol]
  Total SAPT0                      -3.81661434 [mEh]      -2.39496166 [kcal/mol]     -10.02051958 [kJ/mol]
  Total SAPT2                      -3.38273599 [mEh]      -2.12269888 [kcal/mol]      -8.88137213 [kJ/mol]
  Total SAPT2+                     -3.85974128 [mEh]      -2.42202422 [kcal/mol]     -10.13374932 [kJ/mol]

  Special recipe for scaled SAPT0 (see Manual):
    Electrostatics sSAPT0          -2.92760590 [mEh]      -1.83710044 [kcal/mol]      -7.68642824 [kJ/mol]
    Exchange sSAPT0                 5.49443676 [mEh]       3.44781112 [kcal/mol]      14.42564174 [kJ/mol]
    Induction sSAPT0               -0.87892273 [mEh]      -0.55153234 [kcal/mol]      -2.30761130 [kJ/mol]
    Dispersion sSAPT0              -5.49261551 [mEh]      -3.44666827 [kcal/mol]     -14.42086004 [kJ/mol]
  Total sSAPT0                     -3.80470738 [mEh]      -2.38748992 [kcal/mol]      -9.98925784 [kJ/mol]
  --------------------------------------------------------------------------------------------------------

*** Psi4 exiting successfully. Buy a developer a beer!
