                               Psi4 1.9.1 release

  ==> Input File <==

--------------------------------------------------------------------------
MEMORY 10 GB

molecule dimer {
0 1
C   -1.798382   1.057763  -0.551942
C   -1.814818  -0.406295  -0.189193
O   -3.049397  -0.818684   0.346059
H   -3.242730  -0.276030   1.114633
H   -0.850112   1.341314  -1.015457
H   -1.931597   1.681753   0.337635
H   -2.605197   1.289255  -1.249672
H   -0.988671  -0.633582   0.502743
H   -1.653153  -1.020307  -1.079540
--
0 1
C    1.629798   0.588371   1.028772
C    1.941199   0.106999  -0.366559
O    3.130895  -0.641920  -0.428788
H    3.045305  -1.396141   0.159733
H    0.731724   1.211321   1.040556
H    2.460966   1.172875   1.427467
H    1.456130  -0.256248   1.703056
H    2.086917   0.957394  -1.038537
H    1.091649  -0.467795  -0.767251

units ang
no_reorient
no_com
symmetry c1
}

set {
basis        aug-cc-pVTZ
scf_type     df
}

energy("sapt2+")
--------------------------------------------------------------------------

  //              Dimer HF             //
    Molecular point group: c1
  Charge       = 0
  Multiplicity = 1
  Basis Set: AUG-CC-PVTZ
    Blend: AUG-CC-PVTZ
  Basis Set: (AUG-CC-PVTZ AUX)
    Blend: AUG-CC-PVTZ-JKFIT
  @DF-RHF Final Energy:  -308.28736365471366
    Total Energy =                       -308.2873636547136584
 Dipole X            :         -0.1522447           -0.0000057           -0.1522504
 Dipole Y            :          0.4297662            0.0000094            0.4297756
 Dipole Z            :          0.6123645            0.0000038            0.6123683
 Magnitude           :                                                    0.7634672
  //            Monomer A HF           //
    Molecular point group: c1
  Multiplicity = 1
  Basis Set: AUG-CC-PVTZ
    Blend: AUG-CC-PVTZ
  Basis Set: (AUG-CC-PVTZ AUX)
    Blend: AUG-CC-PVTZ-JKFIT
  @DF-RHF Final Energy:  -154.14511671481267
    Total Energy =                       -154.1451167148126729
  //            Monomer B HF           //
    Molecular point group: c1

    Geometry (in Angstrom), charge = 0, multiplicity = 1:

       Center              X                  Y                   Z               Mass
    ------------   -----------------  -----------------  -----------------  -----------------
      Gh(C)          -1.798382000000     1.057763000000    -0.551942000000    12.000000000000
      Gh(C)          -1.814818000000    -0.406295000000    -0.189193000000    12.000000000000
      Gh(O)          -3.049397000000    -0.818684000000     0.346059000000    15.994914619570
      Gh(H)          -3.242730000000    -0.276030000000     1.114633000000     1.007825032230
      Gh(H)          -0.850112000000     1.341314000000    -1.015457000000     1.007825032230
      Gh(H)          -1.931597000000     1.681753000000     0.337635000000     1.007825032230
      Gh(H)          -2.605197000000     1.289255000000    -1.249672000000     1.007825032230
      Gh(H)          -0.988671000000    -0.633582000000     0.502743000000     1.007825032230
      Gh(H)          -1.653153000000    -1.020307000000    -1.079540000000     1.007825032230
         C            1.629798000000     0.588371000000     1.028772000000    12.000000000000
         C            1.941199000000     0.106999000000    -0.366559000000    12.000000000000
         O            3.130895000000    -0.641920000000    -0.428788000000    15.994914619570
         H            3.045305000000    -1.396141000000     0.159733000000     1.007825032230
         H            0.731724000000     1.211321000000     1.040556000000     1.007825032230
         H            2.460966000000     1.172875000000     1.427467000000     1.007825032230
         H            1.456130000000    -0.256248000000     1.703056000000     1.007825032230
         H            2.086917000000     0.957394000000    -1.038537000000     1.007825032230
         H            1.091649000000    -0.467795000000    -0.767251000000     1.007825032230

  Charge       = 0
  Multiplicity = 1
  Basis Set: AUG-CC-PVTZ
    Blend: AUG-CC-PVTZ
  Basis Set: (AUG-CC-PVTZ AUX)
    Blend: AUG-CC-PVTZ-JKFIT

    Orbital Energies [Eh]
    ---------------------

    Doubly Occupied:

       1A    -20.555786     2A    -11.273454     3A    -11.218122
       4A     -1.363345     5A     -1.014047     6A     -0.848235
       7A     -0.688266     8A     -0.626340     9A     -0.611274
      10A     -0.544585    11A     -0.526372    12A     -0.480334
      13A     -0.442696

  @DF-RHF Final Energy:  -154.14514154064699

   => Energetics <=

    Nuclear Repulsion Energy =             82.1680824890344894
    One-Electron Energy =                -372.2407347305750136
    Two-Electron Energy =                 135.9275107008935493
    Total Energy =                       -154.1451415406469891
 Dipole X            :       -108.9304298          108.3679188           -0.5625110
 Dipole Y            :         -0.5926402            0.4880520           -0.1045882
 Dipole Z            :         -5.3842675            5.7976760            0.4134085
 Magnitude           :                                                    0.7058781

    SAPT Results
  --------------------------------------------------------------------------------------------------------
    Electrostatics                 -1.47668356 [mEh]      -0.92663293 [kcal/mol]      -3.87703216 [kJ/mol]
      Elst10,r                     -1.13555957 [mEh]      -0.71257439 [kcal/mol]      -2.98141123 [kJ/mol]
      Elst12,r                     -0.34112400 [mEh]      -0.21405854 [kcal/mol]      -0.89562093 [kJ/mol]

    Exchange                        4.94037973 [mEh]       3.10013508 [kcal/mol]      12.97096518 [kJ/mol]
      Exch10                        4.42386902 [mEh]       2.77601972 [kcal/mol]      11.61486651 [kJ/mol]
      Exch10(S^2)                   4.41175824 [mEh]       2.76842009 [kcal/mol]      11.58306967 [kJ/mol]
      Exch11(S^2)                   0.14422059 [mEh]       0.09049979 [kcal/mol]       0.37865111 [kJ/mol]
      Exch12(S^2)                   0.37229011 [mEh]       0.23361557 [kcal/mol]       0.97744756 [kJ/mol]

    Induction                      -0.40987386 [mEh]      -0.25719973 [kcal/mol]      -1.07612368 [kJ/mol]
      Ind20,r                      -0.91726727 [mEh]      -0.57559390 [kcal/mol]      -2.40828490 [kJ/mol]
      Ind22                        -0.14022409 [mEh]      -0.08799195 [kcal/mol]      -0.36815830 [kJ/mol]
      Exch-Ind20,r                  0.81152389 [mEh]       0.50923893 [kcal/mol]       2.13065568 [kJ/mol]
      Exch-Ind22                    0.12405893 [mEh]       0.07784816 [kcal/mol]       0.32571668 [kJ/mol]
      delta HF,r (2)               -0.28796532 [mEh]      -0.18070097 [kcal/mol]      -0.75605286 [kJ/mol]

    Dispersion                     -5.26188280 [mEh]      -3.30188131 [kcal/mol]     -13.81507139 [kJ/mol]
      Disp20                       -5.34128089 [mEh]      -3.35170436 [kcal/mol]     -14.02353103 [kJ/mol]
      Disp21                        0.15446990 [mEh]       0.09693133 [kcal/mol]       0.40556067 [kJ/mol]
      Disp22 (SDQ)                  0.22837485 [mEh]       0.14330738 [kcal/mol]       0.59959809 [kJ/mol]
      Disp22 (T)                   -0.71902194 [mEh]      -0.45119308 [kcal/mol]      -1.88779186 [kJ/mol]
      Est. Disp22 (T)              -0.80561064 [mEh]      -0.50552831 [kcal/mol]      -2.11513045 [kJ/mol]
      Exch-Disp20                   0.50216398 [mEh]       0.31511265 [kcal/mol]       1.31843134 [kJ/mol]

  Total HF                          2.89460075 [mEh]       1.81638939 [kcal/mol]       7.59977321 [kJ/mol]
  Total SAPT0                      -1.94451616 [mEh]      -1.22020232 [kcal/mol]      -5.10532649 [kJ/mol]
  Total SAPT2                      -1.78529461 [mEh]      -1.12028928 [kcal/mol]      -4.68729036 [kJ/mol]
  Total SAPT2+                     -2.20806050 [mEh]      -1.38557888 [kcal/mol]      -5.79726205 [kJ/mol]

  Special recipe for scaled SAPT0 (see Manual):
    Electrostatics sSAPT0          -1.13555957 [mEh]      -0.71257439 [kcal/mol]      -2.98141123 [kJ/mol]
    Exchange sSAPT0                 4.42386902 [mEh]       2.77601972 [kcal/mol]      11.61486651 [kJ/mol]
    Induction sSAPT0               -0.38700717 [mEh]      -0.24285066 [kcal/mol]      -1.01608718 [kJ/mol]
    Dispersion sSAPT0              -4.83497006 [mEh]      -3.03398952 [kcal/mol]     -12.69421213 [kJ/mol]
  Total sSAPT0                     -1.93366777 [mEh]      -1.21339485 [kcal/mol]      -5.07684404 [kJ/mol]
  --------------------------------------------------------------------------------------------------------

*** Psi4 exiting successfully. Buy a developer a beer!
