                               Psi4 1.9 release

  ==> Input File <==

--------------------------------------------------------------------------
MEMORY 10 GB

molecule dimer {
0 1
C    2.521503   1.163340  -0.337802
C    2.426516  -0.063692   0.523887
O    2.086643  -1.151601  -0.309039
H    2.055413  -1.952933   0.217296
H    2.780880   2.039217   0.258849
H    1.567968   1.353274  -0.835065
H    3.282709   1.030474  -1.108509
H    1.666051   0.082353   1.305854
H    3.383361  -0.244718   1.033392
--
0 1
C   -1.162206  -0.012488   0.304264
C   -2.437747  -0.279133  -0.453753
O   -3.575427   0.241443   0.195765
H   -3.440878   1.183242   0.327317
H   -0.298537  -0.461441  -0.194549
H   -1.229776  -0.415715   1.317539
H   -0.976632   1.064005   0.385188
H   -2.611313  -1.354782  -0.541506
H   -2.357366   0.110126  -1.479196

units ang
no_reorient
no_com
symmetry c1
}

set {
basis        aug-cc-pVTZ
scf_type     df
}

energy("sapt2+")
--------------------------------------------------------------------------

  //              Dimer HF             //
    Molecular point group: c1
  Charge       = 0
  Multiplicity = 1
  Basis Set: AUG-CC-PVTZ
    Blend: AUG-CC-PVTZ
  Basis Set: (AUG-CC-PVTZ AUX)
    Blend: AUG-CC-PVTZ-JKFIT
  @DF-RHF Final Energy:  -308.28914806472687
    Total Energy =                       -308.2891480647268736
 Dipole X            :          0.8189685            0.0000076            0.8189761
 Dipole Y            :          0.2770725            0.0000000            0.2770725
 Dipole Z            :          0.4368665           -0.0000113            0.4368552
 Magnitude           :                                                    0.9686761
  //            Monomer A HF           //
    Molecular point group: c1
  Multiplicity = 1
  Basis Set: AUG-CC-PVTZ
    Blend: AUG-CC-PVTZ
  Basis Set: (AUG-CC-PVTZ AUX)
    Blend: AUG-CC-PVTZ-JKFIT
  @DF-RHF Final Energy:  -154.14564404135155
    Total Energy =                       -154.1456440413515452
  //            Monomer B HF           //
    Molecular point group: c1

    Geometry (in Angstrom), charge = 0, multiplicity = 1:

       Center              X                  Y                   Z               Mass
    ------------   -----------------  -----------------  -----------------  -----------------
      Gh(C)           2.521503000000     1.163340000000    -0.337802000000    12.000000000000
      Gh(C)           2.426516000000    -0.063692000000     0.523887000000    12.000000000000
      Gh(O)           2.086643000000    -1.151601000000    -0.309039000000    15.994914619570
      Gh(H)           2.055413000000    -1.952933000000     0.217296000000     1.007825032230
      Gh(H)           2.780880000000     2.039217000000     0.258849000000     1.007825032230
      Gh(H)           1.567968000000     1.353274000000    -0.835065000000     1.007825032230
      Gh(H)           3.282709000000     1.030474000000    -1.108509000000     1.007825032230
      Gh(H)           1.666051000000     0.082353000000     1.305854000000     1.007825032230
      Gh(H)           3.383361000000    -0.244718000000     1.033392000000     1.007825032230
         C           -1.162206000000    -0.012488000000     0.304264000000    12.000000000000
         C           -2.437747000000    -0.279133000000    -0.453753000000    12.000000000000
         O           -3.575427000000     0.241443000000     0.195765000000    15.994914619570
         H           -3.440878000000     1.183242000000     0.327317000000     1.007825032230
         H           -0.298537000000    -0.461441000000    -0.194549000000     1.007825032230
         H           -1.229776000000    -0.415715000000     1.317539000000     1.007825032230
         H           -0.976632000000     1.064005000000     0.385188000000     1.007825032230
         H           -2.611313000000    -1.354782000000    -0.541506000000     1.007825032230
         H           -2.357366000000     0.110126000000    -1.479196000000     1.007825032230

  Charge       = 0
  Multiplicity = 1
  Basis Set: AUG-CC-PVTZ
    Blend: AUG-CC-PVTZ
  Basis Set: (AUG-CC-PVTZ AUX)
    Blend: AUG-CC-PVTZ-JKFIT

    Orbital Energies [Eh]
    ---------------------

    Doubly Occupied:

       1A    -20.555858     2A    -11.273367     3A    -11.218913
       4A     -1.362597     5A     -1.014469     6A     -0.848442
       7A     -0.687245     8A     -0.625894     9A     -0.612544
      10A     -0.543696    11A     -0.526480    12A     -0.481269
      13A     -0.442917

  @DF-RHF Final Energy:  -154.14504173432158

   => Energetics <=

    Nuclear Repulsion Energy =             82.1459526029046572
    One-Electron Energy =                -372.1946039955864194
    Two-Electron Energy =                 135.9036096583602102
    Total Energy =                       -154.1450417343215804
 Dipole X            :        116.1009538         -115.4955935            0.6053603
 Dipole Y            :         -0.2481918            0.5806240            0.3324323
 Dipole Z            :         -1.0881436            0.9145878           -0.1735559
 Magnitude           :                                                    0.7121053

    SAPT Results
  --------------------------------------------------------------------------------------------------------
    Electrostatics                 -3.19725288 [mEh]      -2.00630647 [kcal/mol]      -8.39438628 [kJ/mol]
      Elst10,r                     -2.79340015 [mEh]      -1.75288506 [kcal/mol]      -7.33407109 [kJ/mol]
      Elst12,r                     -0.40385273 [mEh]      -0.25342141 [kcal/mol]      -1.06031519 [kJ/mol]

    Exchange                        5.77193667 [mEh]       3.62194494 [kcal/mol]      15.15421763 [kJ/mol]
      Exch10                        5.04124951 [mEh]       3.16343183 [kcal/mol]      13.23579876 [kJ/mol]
      Exch10(S^2)                   5.02493024 [mEh]       3.15319133 [kcal/mol]      13.19295253 [kJ/mol]
      Exch11(S^2)                   0.05982852 [mEh]       0.03754296 [kcal/mol]       0.15707976 [kJ/mol]
      Exch12(S^2)                   0.67085864 [mEh]       0.42097015 [kcal/mol]       1.76133911 [kJ/mol]

    Induction                      -0.75661678 [mEh]      -0.47478420 [kcal/mol]      -1.98649708 [kJ/mol]
      Ind20,r                      -1.30536886 [mEh]      -0.81913133 [kcal/mol]      -3.42724547 [kJ/mol]
      Ind22                        -0.19310054 [mEh]      -0.12117242 [kcal/mol]      -0.50698539 [kJ/mol]
      Exch-Ind20,r                  0.99117286 [mEh]       0.62197036 [kcal/mol]       2.60232398 [kJ/mol]
      Exch-Ind22                    0.14662217 [mEh]       0.09200680 [kcal/mol]       0.38495645 [kJ/mol]
      delta HF,r (2)               -0.39594241 [mEh]      -0.24845761 [kcal/mol]      -1.03954665 [kJ/mol]

    Dispersion                     -4.79156287 [mEh]      -3.00675109 [kcal/mol]     -12.58024657 [kJ/mol]
      Disp20                       -4.86642224 [mEh]      -3.05372606 [kcal/mol]     -12.77678983 [kJ/mol]
      Disp21                        0.14433355 [mEh]       0.09057067 [kcal/mol]       0.37894767 [kJ/mol]
      Disp22 (SDQ)                  0.14942358 [mEh]       0.09376471 [kcal/mol]       0.39231156 [kJ/mol]
      Disp22 (T)                   -0.67005846 [mEh]      -0.42046803 [kcal/mol]      -1.75923825 [kJ/mol]
      Est. Disp22 (T)              -0.75876105 [mEh]      -0.47612974 [kcal/mol]      -1.99212685 [kJ/mol]
      Exch-Disp20                   0.53986329 [mEh]       0.33876933 [kcal/mol]       1.41741087 [kJ/mol]

  Total HF                          1.53771095 [mEh]       0.96492819 [kcal/mol]       4.03725953 [kJ/mol]
  Total SAPT0                      -2.78884800 [mEh]      -1.75002854 [kcal/mol]      -7.32211942 [kJ/mol]
  Total SAPT2                      -2.50849194 [mEh]      -1.57410246 [kcal/mol]      -6.58604468 [kJ/mol]
  Total SAPT2+                     -2.97349586 [mEh]      -1.86589682 [kcal/mol]      -7.80691229 [kJ/mol]

  Special recipe for scaled SAPT0 (see Manual):
    Electrostatics sSAPT0          -2.79340015 [mEh]      -1.75288506 [kcal/mol]      -7.33407109 [kJ/mol]
    Exchange sSAPT0                 5.04124951 [mEh]       3.16343183 [kcal/mol]      13.23579876 [kJ/mol]
    Induction sSAPT0               -0.70045003 [mEh]      -0.43953903 [kcal/mol]      -1.83903131 [kJ/mol]
    Dispersion sSAPT0              -4.32128197 [mEh]      -2.71164537 [kcal/mol]     -11.34552425 [kJ/mol]
  Total sSAPT0                     -2.77388265 [mEh]      -1.74063764 [kcal/mol]      -7.28282789 [kJ/mol]
  --------------------------------------------------------------------------------------------------------

*** Psi4 exiting successfully. Buy a developer a beer!
