                               Psi4 1.9 release

  ==> Input File <==

--------------------------------------------------------------------------
MEMORY 10 GB

molecule dimer {
0 1
C   -2.395188   0.710281  -0.552947
C   -1.768942  -0.632004  -0.282446
O   -1.121508  -0.679647   0.980245
H   -1.754348  -0.432706   1.660172
H   -2.868391   0.727584  -1.536520
H   -1.639135   1.497128  -0.519387
H   -3.166981   0.938753   0.188373
H   -0.987975  -0.845510  -1.016767
H   -2.511550  -1.436832  -0.355408
--
0 1
C    2.185819  -0.868605  -0.557657
C    2.239689   0.455397   0.166030
O    0.987006   1.085435   0.231404
H    0.360671   0.483323   0.663376
H    3.175808  -1.325233  -0.626217
H    1.798252  -0.734425  -1.570422
H    1.529461  -1.568584  -0.032447
H    2.907613   1.146107  -0.357474
H    2.664321   0.313680   1.171649

units ang
no_reorient
no_com
symmetry c1
}

set {
basis        aug-cc-pVTZ
scf_type     df
}

energy("sapt2+")
--------------------------------------------------------------------------

  //              Dimer HF             //
    Molecular point group: c1
  Charge       = 0
  Multiplicity = 1
  Basis Set: AUG-CC-PVTZ
    Blend: AUG-CC-PVTZ
  Basis Set: (AUG-CC-PVTZ AUX)
    Blend: AUG-CC-PVTZ-JKFIT
  @DF-RHF Final Energy:  -308.29421521808285
    Total Energy =                       -308.2942152180828543
 Dipole X            :         -0.7439242           -0.0000038           -0.7439279
 Dipole Y            :         -0.4916856            0.0000057           -0.4916799
 Dipole Z            :          0.0708632            0.0000000            0.0708632
 Magnitude           :                                                    0.8945387
  //            Monomer A HF           //
    Molecular point group: c1
  Multiplicity = 1
  Basis Set: AUG-CC-PVTZ
    Blend: AUG-CC-PVTZ
  Basis Set: (AUG-CC-PVTZ AUX)
    Blend: AUG-CC-PVTZ-JKFIT
  @DF-RHF Final Energy:  -154.14504042021508
    Total Energy =                       -154.1450404202150821
  //            Monomer B HF           //
    Molecular point group: c1

    Geometry (in Angstrom), charge = 0, multiplicity = 1:

       Center              X                  Y                   Z               Mass
    ------------   -----------------  -----------------  -----------------  -----------------
      Gh(C)          -2.395188000000     0.710281000000    -0.552947000000    12.000000000000
      Gh(C)          -1.768942000000    -0.632004000000    -0.282446000000    12.000000000000
      Gh(O)          -1.121508000000    -0.679647000000     0.980245000000    15.994914619570
      Gh(H)          -1.754348000000    -0.432706000000     1.660172000000     1.007825032230
      Gh(H)          -2.868391000000     0.727584000000    -1.536520000000     1.007825032230
      Gh(H)          -1.639135000000     1.497128000000    -0.519387000000     1.007825032230
      Gh(H)          -3.166981000000     0.938753000000     0.188373000000     1.007825032230
      Gh(H)          -0.987975000000    -0.845510000000    -1.016767000000     1.007825032230
      Gh(H)          -2.511550000000    -1.436832000000    -0.355408000000     1.007825032230
         C            2.185819000000    -0.868605000000    -0.557657000000    12.000000000000
         C            2.239689000000     0.455397000000     0.166030000000    12.000000000000
         O            0.987006000000     1.085435000000     0.231404000000    15.994914619570
         H            0.360671000000     0.483323000000     0.663376000000     1.007825032230
         H            3.175808000000    -1.325233000000    -0.626217000000     1.007825032230
         H            1.798252000000    -0.734425000000    -1.570422000000     1.007825032230
         H            1.529461000000    -1.568584000000    -0.032447000000     1.007825032230
         H            2.907613000000     1.146107000000    -0.357474000000     1.007825032230
         H            2.664321000000     0.313680000000     1.171649000000     1.007825032230

  Charge       = 0
  Multiplicity = 1
  Basis Set: AUG-CC-PVTZ
    Blend: AUG-CC-PVTZ
  Basis Set: (AUG-CC-PVTZ AUX)
    Blend: AUG-CC-PVTZ-JKFIT

    Orbital Energies [Eh]
    ---------------------

    Doubly Occupied:

       1A    -20.556891     2A    -11.273183     3A    -11.218071
       4A     -1.362483     5A     -1.013291     6A     -0.847743
       7A     -0.686771     8A     -0.627155     9A     -0.611927
      10A     -0.543621    11A     -0.526990    12A     -0.479843
      13A     -0.441688

  @DF-RHF Final Energy:  -154.14468502946715

   => Energetics <=

    Nuclear Repulsion Energy =             82.1759985714086412
    One-Electron Energy =                -372.2620488872090618
    Two-Electron Energy =                 135.9413652863332800
    Total Energy =                       -154.1446850294671549
 Dipole X            :        -88.4365010           88.6002289            0.1637279
 Dipole Y            :         -9.1953799            8.5398613           -0.6555186
 Dipole Z            :          2.5602285           -2.3622805            0.1979480
 Magnitude           :                                                    0.7040560

    SAPT Results
  --------------------------------------------------------------------------------------------------------
    Electrostatics                -16.70781959 [mEh]     -10.48431508 [kcal/mol]     -43.86637430 [kJ/mol]
      Elst10,r                    -16.12786333 [mEh]     -10.12038703 [kcal/mol]     -42.34369933 [kJ/mol]
      Elst12,r                     -0.57995627 [mEh]      -0.36392805 [kcal/mol]      -1.52267497 [kJ/mol]

    Exchange                       19.52986878 [mEh]      12.25517768 [kcal/mol]      51.27566342 [kJ/mol]
      Exch10                       16.59437792 [mEh]      10.41312936 [kcal/mol]      43.56853323 [kJ/mol]
      Exch10(S^2)                  16.46828038 [mEh]      10.33400196 [kcal/mol]      43.23746418 [kJ/mol]
      Exch11(S^2)                   0.16350760 [mEh]       0.10260257 [kcal/mol]       0.42928915 [kJ/mol]
      Exch12(S^2)                   2.77198326 [mEh]       1.73944576 [kcal/mol]       7.27784105 [kJ/mol]

    Induction                      -5.48170224 [mEh]      -3.43982009 [kcal/mol]     -14.39220726 [kJ/mol]
      Ind20,r                      -7.40549426 [mEh]      -4.64701781 [kcal/mol]     -19.44312251 [kJ/mol]
      Ind22                        -1.35038129 [mEh]      -0.84737705 [kcal/mol]      -3.54542559 [kJ/mol]
      Exch-Ind20,r                  4.52409384 [mEh]       2.83891174 [kcal/mol]      11.87800674 [kJ/mol]
      Exch-Ind22                    0.82496204 [mEh]       0.51767150 [kcal/mol]       2.16593755 [kJ/mol]
      delta HF,r (2)               -2.07488257 [mEh]      -1.30200847 [kcal/mol]      -5.44760344 [kJ/mol]

    Dispersion                     -9.05239159 [mEh]      -5.68046148 [kcal/mol]     -23.76705085 [kJ/mol]
      Disp20                       -9.38129896 [mEh]      -5.88685398 [kcal/mol]     -24.63059704 [kJ/mol]
      Disp21                        0.64568186 [mEh]       0.40517148 [kcal/mol]       1.69523749 [kJ/mol]
      Disp22 (SDQ)                 -0.08952452 [mEh]      -0.05617749 [kcal/mol]      -0.23504660 [kJ/mol]
      Disp22 (T)                   -1.43841563 [mEh]      -0.90261944 [kcal/mol]      -3.77655972 [kJ/mol]
      Est. Disp22 (T)              -1.62310550 [mEh]      -1.01851408 [kcal/mol]      -4.26146289 [kJ/mol]
      Exch-Disp20                   1.39585553 [mEh]       0.87591257 [kcal/mol]       3.66481819 [kJ/mol]

  Total HF                         -4.48976840 [mEh]      -2.81737221 [kcal/mol]     -11.78788531 [kJ/mol]
  Total SAPT0                     -12.47521184 [mEh]      -7.82831361 [kcal/mol]     -32.75366416 [kJ/mol]
  Total SAPT2                     -10.64509649 [mEh]      -6.67989890 [kcal/mol]     -27.94869698 [kJ/mol]
  Total SAPT2+                    -11.71204464 [mEh]      -7.34941897 [kcal/mol]     -30.74996898 [kJ/mol]

  Special recipe for scaled SAPT0 (see Manual):
    Electrostatics sSAPT0         -16.12786333 [mEh]     -10.12038703 [kcal/mol]     -42.34369933 [kJ/mol]
    Exchange sSAPT0                16.59437792 [mEh]      10.41312936 [kcal/mol]      43.56853323 [kJ/mol]
    Induction sSAPT0               -4.85156234 [mEh]      -3.04440133 [kcal/mol]     -12.73777516 [kJ/mol]
    Dispersion sSAPT0              -7.95313312 [mEh]      -4.99066638 [kcal/mol]     -20.88094812 [kJ/mol]
  Total sSAPT0                    -12.33818086 [mEh]      -7.74232538 [kcal/mol]     -32.39388938 [kJ/mol]
  --------------------------------------------------------------------------------------------------------

*** Psi4 exiting successfully. Buy a developer a beer!
