                               Psi4 1.9 release

  ==> Input File <==

--------------------------------------------------------------------------
MEMORY 10 GB

molecule dimer {
0 1
C    1.625795   1.155441  -0.267286
C    1.876613  -0.235139   0.256824
O    3.063286  -0.804528  -0.251867
H    3.788701  -0.205797  -0.058033
H    0.682970   1.544136   0.122725
H    1.585213   1.153594  -1.359080
H    2.425436   1.838207   0.037201
H    1.066426  -0.905073  -0.041732
H    1.879815  -0.227843   1.356430
--
0 1
C   -3.312830  -0.085440  -0.406548
C   -1.826379  -0.307294  -0.290228
O   -1.298452   0.193646   0.918383
H   -1.751106  -0.233912   1.649788
H   -3.690820  -0.443188  -1.366367
H   -3.550561   0.975888  -0.314150
H   -3.850088  -0.622055   0.381097
H   -1.296004   0.221932  -1.087215
H   -1.587842  -1.374235  -0.409365

units ang
no_reorient
no_com
symmetry c1
}

set {
basis        aug-cc-pVTZ
scf_type     df
}

energy("sapt2+")
--------------------------------------------------------------------------

  //              Dimer HF             //
    Molecular point group: c1
  Charge       = 0
  Multiplicity = 1
  Basis Set: AUG-CC-PVTZ
    Blend: AUG-CC-PVTZ
  Basis Set: (AUG-CC-PVTZ AUX)
    Blend: AUG-CC-PVTZ-JKFIT
  @DF-RHF Final Energy:  -308.28920087912257
    Total Energy =                       -308.2892008791225749
 Dipole X            :         -0.7781369            0.0000113           -0.7781256
 Dipole Y            :          0.1837473            0.0000113            0.1837587
 Dipole Z            :          0.2741232           -0.0000019            0.2741213
 Magnitude           :                                                    0.8452155
  //            Monomer A HF           //
    Molecular point group: c1
  Multiplicity = 1
  Basis Set: AUG-CC-PVTZ
    Blend: AUG-CC-PVTZ
  Basis Set: (AUG-CC-PVTZ AUX)
    Blend: AUG-CC-PVTZ-JKFIT
  @DF-RHF Final Energy:  -154.14502084739141
    Total Energy =                       -154.1450208473914074
  //            Monomer B HF           //
    Molecular point group: c1

    Geometry (in Angstrom), charge = 0, multiplicity = 1:

       Center              X                  Y                   Z               Mass
    ------------   -----------------  -----------------  -----------------  -----------------
      Gh(C)           1.625795000000     1.155441000000    -0.267286000000    12.000000000000
      Gh(C)           1.876613000000    -0.235139000000     0.256824000000    12.000000000000
      Gh(O)           3.063286000000    -0.804528000000    -0.251867000000    15.994914619570
      Gh(H)           3.788701000000    -0.205797000000    -0.058033000000     1.007825032230
      Gh(H)           0.682970000000     1.544136000000     0.122725000000     1.007825032230
      Gh(H)           1.585213000000     1.153594000000    -1.359080000000     1.007825032230
      Gh(H)           2.425436000000     1.838207000000     0.037201000000     1.007825032230
      Gh(H)           1.066426000000    -0.905073000000    -0.041732000000     1.007825032230
      Gh(H)           1.879815000000    -0.227843000000     1.356430000000     1.007825032230
         C           -3.312830000000    -0.085440000000    -0.406548000000    12.000000000000
         C           -1.826379000000    -0.307294000000    -0.290228000000    12.000000000000
         O           -1.298452000000     0.193646000000     0.918383000000    15.994914619570
         H           -1.751106000000    -0.233912000000     1.649788000000     1.007825032230
         H           -3.690820000000    -0.443188000000    -1.366367000000     1.007825032230
         H           -3.550561000000     0.975888000000    -0.314150000000     1.007825032230
         H           -3.850088000000    -0.622055000000     0.381097000000     1.007825032230
         H           -1.296004000000     0.221932000000    -1.087215000000     1.007825032230
         H           -1.587842000000    -1.374235000000    -0.409365000000     1.007825032230

  Charge       = 0
  Multiplicity = 1
  Basis Set: AUG-CC-PVTZ
    Blend: AUG-CC-PVTZ
  Basis Set: (AUG-CC-PVTZ AUX)
    Blend: AUG-CC-PVTZ-JKFIT

    Orbital Energies [Eh]
    ---------------------

    Doubly Occupied:

       1A    -20.555306     2A    -11.273541     3A    -11.218122
       4A     -1.361683     5A     -1.014549     6A     -0.848399
       7A     -0.687389     8A     -0.625792     9A     -0.611357
      10A     -0.544377    11A     -0.526229    12A     -0.480706
      13A     -0.443066

  @DF-RHF Final Energy:  -154.14518579561803

   => Energetics <=

    Nuclear Repulsion Energy =             82.1367694034306339
    One-Electron Energy =                -372.1828761695771846
    Two-Electron Energy =                 135.9009209705284889
    Total Energy =                       -154.1451857956180334
 Dipole X            :        107.0807927         -107.6185630           -0.5377703
 Dipole Y            :          3.8597785           -4.3138781           -0.4540997
 Dipole Z            :         -3.9127094            3.8176172           -0.0950922
 Magnitude           :                                                    0.7102436

    SAPT Results
  --------------------------------------------------------------------------------------------------------
    Electrostatics                 -3.54615498 [mEh]      -2.22524585 [kcal/mol]      -9.31042862 [kJ/mol]
      Elst10,r                     -3.28108975 [mEh]      -2.05891490 [kcal/mol]      -8.61449996 [kJ/mol]
      Elst12,r                     -0.26506523 [mEh]      -0.16633094 [kcal/mol]      -0.69592866 [kJ/mol]

    Exchange                        5.93855059 [mEh]       3.72649676 [kcal/mol]      15.59166243 [kJ/mol]
      Exch10                        5.14257614 [mEh]       3.22701525 [kcal/mol]      13.50183179 [kJ/mol]
      Exch10(S^2)                   5.13067255 [mEh]       3.21954563 [kcal/mol]      13.47057894 [kJ/mol]
      Exch11(S^2)                   0.01642420 [mEh]       0.01030634 [kcal/mol]       0.04312173 [kJ/mol]
      Exch12(S^2)                   0.77955025 [mEh]       0.48917517 [kcal/mol]       2.04670891 [kJ/mol]

    Induction                      -0.91962843 [mEh]      -0.57707555 [kcal/mol]      -2.41448411 [kJ/mol]
      Ind20,r                      -1.55747268 [mEh]      -0.97732886 [kcal/mol]      -4.08914396 [kJ/mol]
      Ind22                        -0.20197243 [mEh]      -0.12673961 [kcal/mol]      -0.53027854 [kJ/mol]
      Exch-Ind20,r                  1.06467400 [mEh]       0.66809302 [kcal/mol]       2.79530119 [kJ/mol]
      Exch-Ind22                    0.13806649 [mEh]       0.08663803 [kcal/mol]       0.36249353 [kJ/mol]
      delta HF,r (2)               -0.36292381 [mEh]      -0.22773813 [kcal/mol]      -0.95285633 [kJ/mol]

    Dispersion                     -5.32620309 [mEh]      -3.34224290 [kcal/mol]     -13.98394429 [kJ/mol]
      Disp20                       -5.42851964 [mEh]      -3.40644750 [kcal/mol]     -14.25257636 [kJ/mol]
      Disp21                        0.28520516 [mEh]       0.17896894 [kcal/mol]       0.74880604 [kJ/mol]
      Disp22 (SDQ)                  0.11081507 [mEh]       0.06953751 [kcal/mol]       0.29094492 [kJ/mol]
      Disp22 (T)                   -0.77282764 [mEh]      -0.48495667 [kcal/mol]      -2.02905869 [kJ/mol]
      Est. Disp22 (T)              -0.86319562 [mEh]      -0.54166343 [kcal/mol]      -2.26631979 [kJ/mol]
      Exch-Disp20                   0.56949195 [mEh]       0.35736159 [kcal/mol]       1.49520090 [kJ/mol]

  Total HF                          1.00576389 [mEh]       0.63112637 [kcal/mol]       2.64063272 [kJ/mol]
  Total SAPT0                      -3.85326381 [mEh]      -2.41795955 [kcal/mol]     -10.11674274 [kJ/mol]
  Total SAPT2                      -3.38626052 [mEh]      -2.12491056 [kcal/mol]      -8.89062577 [kJ/mol]
  Total SAPT2+                     -3.85343591 [mEh]      -2.41806754 [kcal/mol]     -10.11719460 [kJ/mol]

  Special recipe for scaled SAPT0 (see Manual):
    Electrostatics sSAPT0          -3.28108975 [mEh]      -2.05891490 [kcal/mol]      -8.61449996 [kJ/mol]
    Exchange sSAPT0                 5.14257614 [mEh]       3.22701525 [kcal/mol]      13.50183179 [kJ/mol]
    Induction sSAPT0               -0.84829490 [mEh]      -0.53231308 [kcal/mol]      -2.22719794 [kJ/mol]
    Dispersion sSAPT0              -4.85505469 [mEh]      -3.04659281 [kcal/mol]     -12.74694433 [kJ/mol]
  Total sSAPT0                     -3.84186320 [mEh]      -2.41080556 [kcal/mol]     -10.08681045 [kJ/mol]
  --------------------------------------------------------------------------------------------------------

*** Psi4 exiting successfully. Buy a developer a beer!
