                               Psi4 1.9 release

  ==> Input File <==

--------------------------------------------------------------------------
MEMORY 10 GB

molecule dimer {
0 1
C   -1.767649   1.141140   0.537872
C   -1.786873   0.182956  -0.618586
O   -1.516247  -1.119461  -0.119937
H   -1.621686  -1.760111  -0.826386
H   -1.965418   2.157701   0.194608
H   -0.792472   1.123646   1.029813
H   -2.528051   0.869967   1.272228
H   -1.031102   0.470490  -1.364029
H   -2.763484   0.199082  -1.118537
--
0 1
C    2.285895   0.915613  -0.353139
C    1.768879  -0.497323  -0.253730
O    1.082855  -0.681934   0.959196
H    0.196679  -1.015150   0.760762
H    2.878054   1.060339  -1.259586
H    2.915318   1.146003   0.508561
H    1.457880   1.629245  -0.361193
H    2.606680  -1.206254  -0.316332
H    1.113226  -0.718106  -1.108490

units ang
no_reorient
no_com
symmetry c1
}

set {
basis        aug-cc-pVTZ
scf_type     df
}

energy("sapt2+")
--------------------------------------------------------------------------

  //              Dimer HF             //
    Molecular point group: c1
  Charge       = 0
  Multiplicity = 1
  Basis Set: AUG-CC-PVTZ
    Blend: AUG-CC-PVTZ
  Basis Set: (AUG-CC-PVTZ AUX)
    Blend: AUG-CC-PVTZ-JKFIT
  @DF-RHF Final Energy:  -308.29125663600183
    Total Energy =                       -308.2912566360018332
 Dipole X            :         -0.6616680            0.0000000           -0.6616680
 Dipole Y            :          0.0609472            0.0000151            0.0609623
 Dipole Z            :         -1.2158106           -0.0000132           -1.2158238
 Magnitude           :                                                    1.3855499
  //            Monomer A HF           //
    Molecular point group: c1
  Multiplicity = 1
  Basis Set: AUG-CC-PVTZ
    Blend: AUG-CC-PVTZ
  Basis Set: (AUG-CC-PVTZ AUX)
    Blend: AUG-CC-PVTZ-JKFIT
  @DF-RHF Final Energy:  -154.14558109254750
    Total Energy =                       -154.1455810925475021
  //            Monomer B HF           //
    Molecular point group: c1

    Geometry (in Angstrom), charge = 0, multiplicity = 1:

       Center              X                  Y                   Z               Mass
    ------------   -----------------  -----------------  -----------------  -----------------
      Gh(C)          -1.767649000000     1.141140000000     0.537872000000    12.000000000000
      Gh(C)          -1.786873000000     0.182956000000    -0.618586000000    12.000000000000
      Gh(O)          -1.516247000000    -1.119461000000    -0.119937000000    15.994914619570
      Gh(H)          -1.621686000000    -1.760111000000    -0.826386000000     1.007825032230
      Gh(H)          -1.965418000000     2.157701000000     0.194608000000     1.007825032230
      Gh(H)          -0.792472000000     1.123646000000     1.029813000000     1.007825032230
      Gh(H)          -2.528051000000     0.869967000000     1.272228000000     1.007825032230
      Gh(H)          -1.031102000000     0.470490000000    -1.364029000000     1.007825032230
      Gh(H)          -2.763484000000     0.199082000000    -1.118537000000     1.007825032230
         C            2.285895000000     0.915613000000    -0.353139000000    12.000000000000
         C            1.768879000000    -0.497323000000    -0.253730000000    12.000000000000
         O            1.082855000000    -0.681934000000     0.959196000000    15.994914619570
         H            0.196679000000    -1.015150000000     0.760762000000     1.007825032230
         H            2.878054000000     1.060339000000    -1.259586000000     1.007825032230
         H            2.915318000000     1.146003000000     0.508561000000     1.007825032230
         H            1.457880000000     1.629245000000    -0.361193000000     1.007825032230
         H            2.606680000000    -1.206254000000    -0.316332000000     1.007825032230
         H            1.113226000000    -0.718106000000    -1.108490000000     1.007825032230

  Charge       = 0
  Multiplicity = 1
  Basis Set: AUG-CC-PVTZ
    Blend: AUG-CC-PVTZ
  Basis Set: (AUG-CC-PVTZ AUX)
    Blend: AUG-CC-PVTZ-JKFIT

    Orbital Energies [Eh]
    ---------------------

    Doubly Occupied:

       1A    -20.556256     2A    -11.273759     3A    -11.211014
       4A     -1.362453     5A     -1.011647     6A     -0.835945
       7A     -0.703823     8A     -0.637344     9A     -0.574257
      10A     -0.551700    11A     -0.523404    12A     -0.477804
      13A     -0.439992

  @DF-RHF Final Energy:  -154.14321242101522

   => Energetics <=

    Nuclear Repulsion Energy =             82.1106011075609814
    One-Electron Energy =                -372.1888273997186616
    Two-Electron Energy =                 135.9350138711424734
    Total Energy =                       -154.1432124210152210
 Dipole X            :        -83.7213478           83.4490226           -0.2723252
 Dipole Y            :          3.7672065           -3.8732866           -0.1060801
 Dipole Z            :         -4.8881138            4.2633658           -0.6247481
 Magnitude           :                                                    0.6897276

    SAPT Results
  --------------------------------------------------------------------------------------------------------
    Electrostatics                -16.56508198 [mEh]     -10.39474588 [kcal/mol]     -43.49161674 [kJ/mol]
      Elst10,r                    -15.56911809 [mEh]      -9.76976910 [kcal/mol]     -40.87671391 [kJ/mol]
      Elst12,r                     -0.99596389 [mEh]      -0.62497678 [kcal/mol]      -2.61490283 [kJ/mol]

    Exchange                       21.14212863 [mEh]      13.26688601 [kcal/mol]      55.50865108 [kJ/mol]
      Exch10                       17.89398397 [mEh]      11.22864447 [kcal/mol]      46.98064845 [kJ/mol]
      Exch10(S^2)                  17.77780495 [mEh]      11.15574103 [kcal/mol]      46.67562046 [kJ/mol]
      Exch11(S^2)                   0.17017383 [mEh]       0.10678569 [kcal/mol]       0.44679133 [kJ/mol]
      Exch12(S^2)                   3.07797083 [mEh]       1.93145585 [kcal/mol]       8.08121130 [kJ/mol]

    Induction                      -5.34131302 [mEh]      -3.35172452 [kcal/mol]     -14.02361541 [kJ/mol]
      Ind20,r                      -7.26727369 [mEh]      -4.56028309 [kcal/mol]     -19.08022445 [kJ/mol]
      Ind22                        -1.47041547 [mEh]      -0.92269964 [kcal/mol]      -3.86057529 [kJ/mol]
      Exch-Ind20,r                  4.53256225 [mEh]       2.84422575 [kcal/mol]      11.90024054 [kJ/mol]
      Exch-Ind22                    0.91709077 [mEh]       0.57548315 [kcal/mol]       2.40782149 [kJ/mol]
      delta HF,r (2)               -2.05327688 [mEh]      -1.28845069 [kcal/mol]      -5.39087770 [kJ/mol]

    Dispersion                    -10.45591337 [mEh]      -6.56118469 [kcal/mol]     -27.45199676 [kJ/mol]
      Disp20                      -10.74861401 [mEh]      -6.74485712 [kcal/mol]     -28.22048220 [kJ/mol]
      Disp21                        0.63954444 [mEh]       0.40132019 [kcal/mol]       1.67912369 [kJ/mol]
      Disp22 (SDQ)                 -0.07127079 [mEh]      -0.04472310 [kcal/mol]      -0.18712143 [kJ/mol]
      Disp22 (T)                   -1.61890511 [mEh]      -1.01587829 [kcal/mol]      -4.25043478 [kJ/mol]
      Est. Disp22 (T)              -1.82640609 [mEh]      -1.14608713 [kcal/mol]      -4.79522853 [kJ/mol]
      Exch-Disp20                   1.55083309 [mEh]       0.97316245 [kcal/mol]       4.07171171 [kJ/mol]

  Total HF                         -2.46312244 [mEh]      -1.54563267 [kcal/mol]      -6.46692707 [kJ/mol]
  Total SAPT0                     -11.66090336 [mEh]      -7.31732733 [kcal/mol]     -30.61569757 [kJ/mol]
  Total SAPT2                      -9.96204729 [mEh]      -6.25127905 [kcal/mol]     -26.15535157 [kJ/mol]
  Total SAPT2+                    -11.22017974 [mEh]      -7.04076908 [kcal/mol]     -29.45857784 [kJ/mol]

  Special recipe for scaled SAPT0 (see Manual):
    Electrostatics sSAPT0         -15.56911809 [mEh]      -9.76976910 [kcal/mol]     -40.87671391 [kJ/mol]
    Exchange sSAPT0                17.89398397 [mEh]      11.22864447 [kcal/mol]      46.98064845 [kJ/mol]
    Induction sSAPT0               -4.69854464 [mEh]      -2.94838127 [kcal/mol]     -12.33602725 [kJ/mol]
    Dispersion sSAPT0              -9.16717744 [mEh]      -5.75249069 [kcal/mol]     -24.06842104 [kJ/mol]
  Total sSAPT0                    -11.54085619 [mEh]      -7.24199659 [kcal/mol]     -30.30051375 [kJ/mol]
  --------------------------------------------------------------------------------------------------------

*** Psi4 exiting successfully. Buy a developer a beer!
