                               Psi4 1.9 release

  ==> Input File <==

--------------------------------------------------------------------------
MEMORY 10 GB

molecule dimer {
0 1
C    3.060548   0.177448  -0.313947
C    1.557544   0.097717  -0.349948
O    1.006369  -0.201892   0.920487
H    1.260914   0.482484   1.544879
H    3.465039   0.367849  -1.309744
H    3.485615  -0.755472   0.059941
H    3.394218   0.988890   0.339300
H    1.223902  -0.709173  -1.007567
H    1.127414   1.028827  -0.745162
--
0 1
C   -2.279661   1.073048   0.209358
C   -1.971739  -0.139988  -0.636391
O   -1.538721  -1.234613   0.124290
H   -0.733445  -0.967396   0.592167
H   -2.653636   1.899566  -0.399499
H   -1.379815   1.416192   0.728692
H   -3.030177   0.831048   0.964493
H   -1.231842   0.125953  -1.409958
H   -2.869521  -0.466075  -1.170188

units ang
no_reorient
no_com
symmetry c1
}

set {
basis        aug-cc-pVTZ
scf_type     df
}

energy("sapt2+")
--------------------------------------------------------------------------

  //              Dimer HF             //
    Molecular point group: c1
  Charge       = 0
  Multiplicity = 1
  Basis Set: AUG-CC-PVTZ
    Blend: AUG-CC-PVTZ
  Basis Set: (AUG-CC-PVTZ AUX)
    Blend: AUG-CC-PVTZ-JKFIT
  @DF-RHF Final Energy:  -308.29291638760373
    Total Energy =                       -308.2929163876037251
 Dipole X            :          0.9898845            0.0000038            0.9898883
 Dipole Y            :          1.1617302            0.0000057            1.1617359
 Dipole Z            :         -0.1408912            0.0000038           -0.1408875
 Magnitude           :                                                    1.5327617
  //            Monomer A HF           //
    Molecular point group: c1
  Multiplicity = 1
  Basis Set: AUG-CC-PVTZ
    Blend: AUG-CC-PVTZ
  Basis Set: (AUG-CC-PVTZ AUX)
    Blend: AUG-CC-PVTZ-JKFIT
  @DF-RHF Final Energy:  -154.14519257485969
    Total Energy =                       -154.1451925748596921
  //            Monomer B HF           //
    Molecular point group: c1

    Geometry (in Angstrom), charge = 0, multiplicity = 1:

       Center              X                  Y                   Z               Mass
    ------------   -----------------  -----------------  -----------------  -----------------
      Gh(C)           3.060548000000     0.177448000000    -0.313947000000    12.000000000000
      Gh(C)           1.557544000000     0.097717000000    -0.349948000000    12.000000000000
      Gh(O)           1.006369000000    -0.201892000000     0.920487000000    15.994914619570
      Gh(H)           1.260914000000     0.482484000000     1.544879000000     1.007825032230
      Gh(H)           3.465039000000     0.367849000000    -1.309744000000     1.007825032230
      Gh(H)           3.485615000000    -0.755472000000     0.059941000000     1.007825032230
      Gh(H)           3.394218000000     0.988890000000     0.339300000000     1.007825032230
      Gh(H)           1.223902000000    -0.709173000000    -1.007567000000     1.007825032230
      Gh(H)           1.127414000000     1.028827000000    -0.745162000000     1.007825032230
         C           -2.279661000000     1.073048000000     0.209358000000    12.000000000000
         C           -1.971739000000    -0.139988000000    -0.636391000000    12.000000000000
         O           -1.538721000000    -1.234613000000     0.124290000000    15.994914619570
         H           -0.733445000000    -0.967396000000     0.592167000000     1.007825032230
         H           -2.653636000000     1.899566000000    -0.399499000000     1.007825032230
         H           -1.379815000000     1.416192000000     0.728692000000     1.007825032230
         H           -3.030177000000     0.831048000000     0.964493000000     1.007825032230
         H           -1.231842000000     0.125953000000    -1.409958000000     1.007825032230
         H           -2.869521000000    -0.466075000000    -1.170188000000     1.007825032230

  Charge       = 0
  Multiplicity = 1
  Basis Set: AUG-CC-PVTZ
    Blend: AUG-CC-PVTZ
  Basis Set: (AUG-CC-PVTZ AUX)
    Blend: AUG-CC-PVTZ-JKFIT

    Orbital Energies [Eh]
    ---------------------

    Doubly Occupied:

       1A    -20.557554     2A    -11.273256     3A    -11.217663
       4A     -1.364439     5A     -1.012958     6A     -0.847043
       7A     -0.688745     8A     -0.627625     9A     -0.609952
      10A     -0.545045    11A     -0.527371    12A     -0.479325
      13A     -0.441844

  @DF-RHF Final Energy:  -154.14462983673585

   => Energetics <=

    Nuclear Repulsion Energy =             82.2043337009003778
    One-Electron Energy =                -372.3122840040826418
    Two-Electron Energy =                 135.9633204664464472
    Total Energy =                       -154.1446298367358452
 Dipole X            :         94.2249099          -93.9507654            0.2741445
 Dipole Y            :          3.3669380           -2.7197997            0.6471383
 Dipole Z            :          4.2541303           -4.2748836           -0.0207533
 Magnitude           :                                                    0.7031173

    SAPT Results
  --------------------------------------------------------------------------------------------------------
    Electrostatics                -14.34212876 [mEh]      -8.99982167 [kcal/mol]     -37.65525388 [kJ/mol]
      Elst10,r                    -13.88580371 [mEh]      -8.71347338 [kcal/mol]     -36.45717261 [kJ/mol]
      Elst12,r                     -0.45632506 [mEh]      -0.28634830 [kcal/mol]      -1.19808127 [kJ/mol]

    Exchange                       17.78233792 [mEh]      11.15858551 [kcal/mol]      46.68752177 [kJ/mol]
      Exch10                       15.09983927 [mEh]       9.47529219 [kcal/mol]      39.64462254 [kJ/mol]
      Exch10(S^2)                  14.99563064 [mEh]       9.40990029 [kcal/mol]      39.37102283 [kJ/mol]
      Exch11(S^2)                   0.14174664 [mEh]       0.08894736 [kcal/mol]       0.37215575 [kJ/mol]
      Exch12(S^2)                   2.54075201 [mEh]       1.59434596 [kcal/mol]       6.67074348 [kJ/mol]

    Induction                      -4.76699432 [mEh]      -2.99133410 [kcal/mol]     -12.51574187 [kJ/mol]
      Ind20,r                      -6.28729657 [mEh]      -3.94533816 [kcal/mol]     -16.50729486 [kJ/mol]
      Ind22                        -1.15911219 [mEh]      -0.72735388 [kcal/mol]      -3.04324863 [kJ/mol]
      Exch-Ind20,r                  3.79766639 [mEh]       2.38307164 [kcal/mol]       9.97077174 [kJ/mol]
      Exch-Ind22                    0.70012943 [mEh]       0.43933785 [kcal/mol]       1.83818958 [kJ/mol]
      delta HF,r (2)               -1.81838140 [mEh]      -1.14105155 [kcal/mol]      -4.77415970 [kJ/mol]

    Dispersion                     -8.82304325 [mEh]      -5.53654323 [kcal/mol]     -23.16489687 [kJ/mol]
      Disp20                       -9.01469180 [mEh]      -5.65680451 [kcal/mol]     -23.66807006 [kJ/mol]
      Disp21                        0.50969407 [mEh]       0.31983786 [kcal/mol]       1.33820159 [kJ/mol]
      Disp22 (SDQ)                 -0.04950912 [mEh]      -0.03106744 [kcal/mol]      -0.12998618 [kJ/mol]
      Disp22 (T)                   -1.37175913 [mEh]      -0.86079185 [kcal/mol]      -3.60155309 [kJ/mol]
      Est. Disp22 (T)              -1.54810869 [mEh]      -0.97145287 [kcal/mol]      -4.06455880 [kJ/mol]
      Exch-Disp20                   1.27957228 [mEh]       0.80294373 [kcal/mol]       3.35951657 [kJ/mol]

  Total HF                         -3.09397601 [mEh]      -1.94149926 [kcal/mol]      -8.12323289 [kJ/mol]
  Total SAPT0                     -10.82909552 [mEh]      -6.79536003 [kcal/mol]     -28.43178638 [kJ/mol]
  Total SAPT2                      -9.06190468 [mEh]      -5.68643104 [kcal/mol]     -23.79202747 [kJ/mol]
  Total SAPT2+                    -10.14982842 [mEh]      -6.36911349 [kcal/mol]     -26.64837085 [kJ/mol]

  Special recipe for scaled SAPT0 (see Manual):
    Electrostatics sSAPT0         -13.88580371 [mEh]      -8.71347338 [kcal/mol]     -36.45717261 [kJ/mol]
    Exchange sSAPT0                15.09983927 [mEh]       9.47529219 [kcal/mol]      39.64462254 [kJ/mol]
    Induction sSAPT0               -4.22828712 [mEh]      -2.65329023 [kcal/mol]     -11.10136631 [kJ/mol]
    Dispersion sSAPT0              -7.70825744 [mEh]      -4.83700457 [kcal/mol]     -20.23802712 [kJ/mol]
  Total sSAPT0                    -10.72250900 [mEh]      -6.72847598 [kcal/mol]     -28.15194350 [kJ/mol]
  --------------------------------------------------------------------------------------------------------

*** Psi4 exiting successfully. Buy a developer a beer!
