                               Psi4 1.9 release

  ==> Input File <==

--------------------------------------------------------------------------
MEMORY 10 GB

molecule dimer {
0 1
C   -2.550850   1.111521  -0.091202
C   -1.974097  -0.128342   0.539933
O   -1.396821  -0.998413  -0.416491
H   -2.055882  -1.239114  -1.071696
H   -2.952669   1.785496   0.667649
H   -3.366905   0.860365  -0.775173
H   -1.786366   1.646324  -0.658172
H   -2.736451  -0.656425   1.127510
H   -1.161814   0.124264   1.226954
--
0 1
C    3.065717   0.620996   0.088502
C    1.674102   0.237567  -0.333580
O    1.328763  -0.959166   0.311829
H    0.452112  -1.222290  -0.000495
H    3.378400   1.553722  -0.384325
H    3.774490  -0.162459  -0.186390
H    3.111880   0.748856   1.171829
H    1.628855   0.125598  -1.427751
H    0.969585   1.045846  -0.074552

units ang
no_reorient
no_com
symmetry c1
}

set {
basis        aug-cc-pVTZ
scf_type     df
}

energy("sapt2+")
--------------------------------------------------------------------------

  //              Dimer HF             //
    Molecular point group: c1
  Charge       = 0
  Multiplicity = 1
  Basis Set: AUG-CC-PVTZ
    Blend: AUG-CC-PVTZ
  Basis Set: (AUG-CC-PVTZ AUX)
    Blend: AUG-CC-PVTZ-JKFIT
  @DF-RHF Final Energy:  -308.29459442118446
    Total Energy =                       -308.2945944211844562
 Dipole X            :         -1.3030224            0.0000057           -1.3030167
 Dipole Y            :          0.5520259            0.0000057            0.5520316
 Dipole Z            :         -0.4368588            0.0000189           -0.4368399
 Magnitude           :                                                    1.4810201
  //            Monomer A HF           //
    Molecular point group: c1
  Multiplicity = 1
  Basis Set: AUG-CC-PVTZ
    Blend: AUG-CC-PVTZ
  Basis Set: (AUG-CC-PVTZ AUX)
    Blend: AUG-CC-PVTZ-JKFIT
  @DF-RHF Final Energy:  -154.14520171514701
    Total Energy =                       -154.1452017151470102
  //            Monomer B HF           //
    Molecular point group: c1

    Geometry (in Angstrom), charge = 0, multiplicity = 1:

       Center              X                  Y                   Z               Mass
    ------------   -----------------  -----------------  -----------------  -----------------
      Gh(C)          -2.550850000000     1.111521000000    -0.091202000000    12.000000000000
      Gh(C)          -1.974097000000    -0.128342000000     0.539933000000    12.000000000000
      Gh(O)          -1.396821000000    -0.998413000000    -0.416491000000    15.994914619570
      Gh(H)          -2.055882000000    -1.239114000000    -1.071696000000     1.007825032230
      Gh(H)          -2.952669000000     1.785496000000     0.667649000000     1.007825032230
      Gh(H)          -3.366905000000     0.860365000000    -0.775173000000     1.007825032230
      Gh(H)          -1.786366000000     1.646324000000    -0.658172000000     1.007825032230
      Gh(H)          -2.736451000000    -0.656425000000     1.127510000000     1.007825032230
      Gh(H)          -1.161814000000     0.124264000000     1.226954000000     1.007825032230
         C            3.065717000000     0.620996000000     0.088502000000    12.000000000000
         C            1.674102000000     0.237567000000    -0.333580000000    12.000000000000
         O            1.328763000000    -0.959166000000     0.311829000000    15.994914619570
         H            0.452112000000    -1.222290000000    -0.000495000000     1.007825032230
         H            3.378400000000     1.553722000000    -0.384325000000     1.007825032230
         H            3.774490000000    -0.162459000000    -0.186390000000     1.007825032230
         H            3.111880000000     0.748856000000     1.171829000000     1.007825032230
         H            1.628855000000     0.125598000000    -1.427751000000     1.007825032230
         H            0.969585000000     1.045846000000    -0.074552000000     1.007825032230

  Charge       = 0
  Multiplicity = 1
  Basis Set: AUG-CC-PVTZ
    Blend: AUG-CC-PVTZ
  Basis Set: (AUG-CC-PVTZ AUX)
    Blend: AUG-CC-PVTZ-JKFIT

    Orbital Energies [Eh]
    ---------------------

    Doubly Occupied:

       1A    -20.557840     2A    -11.273420     3A    -11.210704
       4A     -1.364561     5A     -1.012765     6A     -0.832366
       7A     -0.703866     8A     -0.645469     9A     -0.576407
      10A     -0.534180    11A     -0.524687    12A     -0.488421
      13A     -0.438538

  @DF-RHF Final Energy:  -154.14509903754242

   => Energetics <=

    Nuclear Repulsion Energy =             82.3198240816159625
    One-Electron Energy =                -372.6033960424296652
    Two-Electron Energy =                 136.1384729232712516
    Total Energy =                       -154.1450990375424226
 Dipole X            :        -99.3609969           98.9920559           -0.3689411
 Dipole Y            :          1.1396125           -0.8176410            0.3219714
 Dipole Z            :         -0.6725366            0.2314537           -0.4410829
 Magnitude           :                                                    0.6590427

    SAPT Results
  --------------------------------------------------------------------------------------------------------
    Electrostatics                -13.84453313 [mEh]      -8.68757570 [kcal/mol]     -36.34881672 [kJ/mol]
      Elst10,r                    -13.74672709 [mEh]      -8.62620148 [kcal/mol]     -36.09202699 [kJ/mol]
      Elst12,r                     -0.09780604 [mEh]      -0.06137422 [kcal/mol]      -0.25678973 [kJ/mol]

    Exchange                       16.08028170 [mEh]      10.09052911 [kcal/mol]      42.21877379 [kJ/mol]
      Exch10                       13.69128861 [mEh]       8.59141331 [kcal/mol]      35.94647328 [kJ/mol]
      Exch10(S^2)                  13.59698929 [mEh]       8.53223959 [kcal/mol]      35.69889046 [kJ/mol]
      Exch11(S^2)                   0.10333733 [mEh]       0.06484515 [kcal/mol]       0.27131212 [kJ/mol]
      Exch12(S^2)                   2.28565577 [mEh]       1.43427065 [kcal/mol]       6.00098839 [kJ/mol]

    Induction                      -4.67413727 [mEh]      -2.93306542 [kcal/mol]     -12.27194571 [kJ/mol]
      Ind20,r                      -5.85328605 [mEh]      -3.67299245 [kcal/mol]     -15.36780041 [kJ/mol]
      Ind22                        -1.03721528 [mEh]      -0.65086241 [kcal/mol]      -2.72320833 [kJ/mol]
      Exch-Ind20,r                  3.39334363 [mEh]       2.12935527 [kcal/mol]       8.90922247 [kJ/mol]
      Exch-Ind22                    0.60130802 [mEh]       0.37732648 [kcal/mol]       1.57873399 [kJ/mol]
      delta HF,r (2)               -1.77828759 [mEh]      -1.11589231 [kcal/mol]      -4.66889342 [kJ/mol]

    Dispersion                     -7.74562585 [mEh]      -4.86045360 [kcal/mol]     -20.33613788 [kJ/mol]
      Disp20                       -7.89972017 [mEh]      -4.95714925 [kcal/mol]     -20.74071245 [kJ/mol]
      Disp21                        0.46765407 [mEh]       0.29345736 [kcal/mol]       1.22782559 [kJ/mol]
      Disp22 (SDQ)                 -0.05566879 [mEh]      -0.03493269 [kcal/mol]      -0.14615838 [kJ/mol]
      Disp22 (T)                   -1.20911716 [mEh]      -0.75873247 [kcal/mol]      -3.17453667 [kJ/mol]
      Est. Disp22 (T)              -1.36359017 [mEh]      -0.85566575 [kcal/mol]      -3.58010550 [kJ/mol]
      Exch-Disp20                   1.10569920 [mEh]       0.69383673 [kcal/mol]       2.90301286 [kJ/mol]

  Total HF                         -4.29366850 [mEh]      -2.69431766 [kcal/mol]     -11.27302508 [kJ/mol]
  Total SAPT0                     -11.08768946 [mEh]      -6.95763018 [kcal/mol]     -29.11072467 [kJ/mol]
  Total SAPT2                      -9.23240966 [mEh]      -5.79342453 [kcal/mol]     -24.23968823 [kJ/mol]
  Total SAPT2+                    -10.18401455 [mEh]      -6.39056561 [kcal/mol]     -26.73812652 [kJ/mol]

  Special recipe for scaled SAPT0 (see Manual):
    Electrostatics sSAPT0         -13.74672709 [mEh]      -8.62620148 [kcal/mol]     -36.09202699 [kJ/mol]
    Exchange sSAPT0                13.69128861 [mEh]       8.59141331 [kcal/mol]      35.94647328 [kJ/mol]
    Induction sSAPT0               -4.16713758 [mEh]      -2.61491831 [kcal/mol]     -10.94081821 [kJ/mol]
    Dispersion sSAPT0              -6.77085595 [mEh]      -4.24877626 [kcal/mol]     -17.77687986 [kJ/mol]
  Total sSAPT0                    -10.99343201 [mEh]      -6.89848274 [kcal/mol]     -28.86325178 [kJ/mol]
  --------------------------------------------------------------------------------------------------------

*** Psi4 exiting successfully. Buy a developer a beer!
