                               Psi4 1.9 release

  ==> Input File <==

--------------------------------------------------------------------------
MEMORY 10 GB

molecule dimer {
0 1
C   -1.625807   1.059484   0.634878
C   -2.134810   0.062561  -0.367521
O   -1.503556  -1.178408  -0.117601
H   -1.853884  -1.833659  -0.723908
H   -2.131355   2.018747   0.511181
H   -0.552167   1.223174   0.512937
H   -1.811479   0.701238   1.649803
H   -1.916676   0.411376  -1.387910
H   -3.226488  -0.037051  -0.285713
--
0 1
C    1.829110  -0.956948   0.707802
C    1.684364  -0.165801  -0.565959
O    1.716030   1.229112  -0.342372
H    2.511858   1.436374   0.154053
H    1.762317  -2.028976   0.511733
H    1.036444  -0.694057   1.410849
H    2.795718  -0.763017   1.184059
H    0.712375  -0.376648  -1.020251
H    2.456407  -0.458908  -1.292244

units ang
no_reorient
no_com
symmetry c1
}

set {
basis        aug-cc-pVTZ
scf_type     df
}

energy("sapt2+")
--------------------------------------------------------------------------

  //              Dimer HF             //
    Molecular point group: c1
  Charge       = 0
  Multiplicity = 1
  Basis Set: AUG-CC-PVTZ
    Blend: AUG-CC-PVTZ
  Basis Set: (AUG-CC-PVTZ AUX)
    Blend: AUG-CC-PVTZ-JKFIT
  @DF-RHF Final Energy:  -308.28868702969817
    Total Energy =                       -308.2886870296981670
 Dipole X            :         -0.0404899            0.0000076           -0.0404823
 Dipole Y            :         -0.3740437            0.0000019           -0.3740419
 Dipole Z            :         -0.2149943            0.0000094           -0.2149849
 Magnitude           :                                                    0.4333182
  //            Monomer A HF           //
    Molecular point group: c1
  Multiplicity = 1
  Basis Set: AUG-CC-PVTZ
    Blend: AUG-CC-PVTZ
  Basis Set: (AUG-CC-PVTZ AUX)
    Blend: AUG-CC-PVTZ-JKFIT
  @DF-RHF Final Energy:  -154.14559048185276
    Total Energy =                       -154.1455904818527642
  //            Monomer B HF           //
    Molecular point group: c1

    Geometry (in Angstrom), charge = 0, multiplicity = 1:

       Center              X                  Y                   Z               Mass
    ------------   -----------------  -----------------  -----------------  -----------------
      Gh(C)          -1.625807000000     1.059484000000     0.634878000000    12.000000000000
      Gh(C)          -2.134810000000     0.062561000000    -0.367521000000    12.000000000000
      Gh(O)          -1.503556000000    -1.178408000000    -0.117601000000    15.994914619570
      Gh(H)          -1.853884000000    -1.833659000000    -0.723908000000     1.007825032230
      Gh(H)          -2.131355000000     2.018747000000     0.511181000000     1.007825032230
      Gh(H)          -0.552167000000     1.223174000000     0.512937000000     1.007825032230
      Gh(H)          -1.811479000000     0.701238000000     1.649803000000     1.007825032230
      Gh(H)          -1.916676000000     0.411376000000    -1.387910000000     1.007825032230
      Gh(H)          -3.226488000000    -0.037051000000    -0.285713000000     1.007825032230
         C            1.829110000000    -0.956948000000     0.707802000000    12.000000000000
         C            1.684364000000    -0.165801000000    -0.565959000000    12.000000000000
         O            1.716030000000     1.229112000000    -0.342372000000    15.994914619570
         H            2.511858000000     1.436374000000     0.154053000000     1.007825032230
         H            1.762317000000    -2.028976000000     0.511733000000     1.007825032230
         H            1.036444000000    -0.694057000000     1.410849000000     1.007825032230
         H            2.795718000000    -0.763017000000     1.184059000000     1.007825032230
         H            0.712375000000    -0.376648000000    -1.020251000000     1.007825032230
         H            2.456407000000    -0.458908000000    -1.292244000000     1.007825032230

  Charge       = 0
  Multiplicity = 1
  Basis Set: AUG-CC-PVTZ
    Blend: AUG-CC-PVTZ
  Basis Set: (AUG-CC-PVTZ AUX)
    Blend: AUG-CC-PVTZ-JKFIT

    Orbital Energies [Eh]
    ---------------------

    Doubly Occupied:

       1A    -20.555143     2A    -11.273604     3A    -11.218982
       4A     -1.360918     5A     -1.015416     6A     -0.848354
       7A     -0.684993     8A     -0.625636     9A     -0.615303
      10A     -0.543076    11A     -0.526078    12A     -0.481910
      13A     -0.443099

  @DF-RHF Final Energy:  -154.14501115080668

   => Energetics <=

    Nuclear Repulsion Energy =             82.1399808596586070
    One-Electron Energy =                -372.1849600298554606
    Two-Electron Energy =                 135.8999680193901440
    Total Energy =                       -154.1450111508066811
 Dipole X            :        -86.6392243           87.0865224            0.4472981
 Dipole Y            :         -0.9092156            0.3990535           -0.5101621
 Dipole Z            :          2.0146627           -1.7758115            0.2388511
 Magnitude           :                                                    0.7192988

    SAPT Results
  --------------------------------------------------------------------------------------------------------
    Electrostatics                 -5.75357120 [mEh]      -3.61042044 [kcal/mol]     -15.10599910 [kJ/mol]
      Elst10,r                     -5.11308299 [mEh]      -3.20850802 [kcal/mol]     -13.42439754 [kJ/mol]
      Elst12,r                     -0.64048821 [mEh]      -0.40191242 [kcal/mol]      -1.68160157 [kJ/mol]

    Exchange                        9.82600820 [mEh]       6.16591324 [kcal/mol]      25.79818099 [kJ/mol]
      Exch10                        8.50802031 [mEh]       5.33886334 [kcal/mol]      22.33780423 [kJ/mol]
      Exch10(S^2)                   8.48214986 [mEh]       5.32262940 [kcal/mol]      22.26988140 [kJ/mol]
      Exch11(S^2)                   0.05761746 [mEh]       0.03615550 [kcal/mol]       0.15127461 [kJ/mol]
      Exch12(S^2)                   1.26037044 [mEh]       0.79089439 [kcal/mol]       3.30910214 [kJ/mol]

    Induction                      -1.58608960 [mEh]      -0.99528625 [kcal/mol]      -4.16427766 [kJ/mol]
      Ind20,r                      -2.67427385 [mEh]      -1.67813218 [kcal/mol]      -7.02130502 [kJ/mol]
      Ind22                        -0.34588762 [mEh]      -0.21704776 [kcal/mol]      -0.90812782 [kJ/mol]
      Exch-Ind20,r                  1.85661383 [mEh]       1.16504277 [kcal/mol]       4.87453894 [kJ/mol]
      Exch-Ind22                    0.24013238 [mEh]       0.15068534 [kcal/mol]       0.63046747 [kJ/mol]
      delta HF,r (2)               -0.66267434 [mEh]      -0.41583443 [kcal/mol]      -1.73985123 [kJ/mol]

    Dispersion                     -7.40939487 [mEh]      -4.64946548 [kcal/mol]     -19.45336355 [kJ/mol]
      Disp20                       -7.72135094 [mEh]      -4.84522086 [kcal/mol]     -20.27240409 [kJ/mol]
      Disp21                        0.51555988 [mEh]       0.32351871 [kcal/mol]       1.35360227 [kJ/mol]
      Disp22 (SDQ)                  0.09879601 [mEh]       0.06199543 [kcal/mol]       0.25938890 [kJ/mol]
      Disp22 (T)                   -1.08314043 [mEh]      -0.67968088 [kcal/mol]      -2.84378482 [kJ/mol]
      Est. Disp22 (T)              -1.22248907 [mEh]      -0.76712347 [kcal/mol]      -3.20964461 [kJ/mol]
      Exch-Disp20                   0.92008925 [mEh]       0.57736472 [kcal/mol]       2.41569399 [kJ/mol]

  Total HF                          1.91460296 [mEh]       1.20143150 [kcal/mol]       5.02678938 [kJ/mol]
  Total SAPT0                      -4.88665873 [mEh]      -3.06642465 [kcal/mol]     -12.82992072 [kJ/mol]
  Total SAPT2                      -4.31491428 [mEh]      -2.70764959 [kcal/mol]     -11.32880588 [kJ/mol]
  Total SAPT2+                     -4.92304746 [mEh]      -3.08925892 [kcal/mol]     -12.92545933 [kJ/mol]

  Special recipe for scaled SAPT0 (see Manual):
    Electrostatics sSAPT0          -5.11308299 [mEh]      -3.20850802 [kcal/mol]     -13.42439754 [kJ/mol]
    Exchange sSAPT0                 8.50802031 [mEh]       5.33886334 [kcal/mol]      22.33780423 [kJ/mol]
    Induction sSAPT0               -1.46329455 [mEh]      -0.91823119 [kcal/mol]      -3.84187931 [kJ/mol]
    Dispersion sSAPT0              -6.79281721 [mEh]      -4.26255715 [kcal/mol]     -17.83453912 [kJ/mol]
  Total sSAPT0                     -4.86117444 [mEh]      -3.05043301 [kcal/mol]     -12.76301173 [kJ/mol]
  --------------------------------------------------------------------------------------------------------

*** Psi4 exiting successfully. Buy a developer a beer!
