                               Psi4 1.9 release

  ==> Input File <==

--------------------------------------------------------------------------
MEMORY 10 GB

molecule dimer {
0 1
C   -1.728409   1.254876  -0.147483
C   -2.155839  -0.184467  -0.161942
O   -1.284854  -0.905180   0.697135
H   -1.579809  -1.816618   0.758447
H   -2.379735   1.857622  -0.781622
H   -0.705888   1.354837  -0.519189
H   -1.764807   1.654841   0.867529
H   -2.104620  -0.586825  -1.182497
H   -3.193108  -0.281229   0.182657
--
0 1
C    2.200284   0.356176   0.934402
C    1.925813   0.266620  -0.546673
O    1.131569  -0.840507  -0.881891
H    0.381752  -0.875127  -0.267210
H    2.843390   1.207352   1.168566
H    2.687622  -0.554241   1.289671
H    1.265309   0.476477   1.490262
H    2.861322   0.162718  -1.104886
H    1.463757   1.206462  -0.893503

units ang
no_reorient
no_com
symmetry c1
}

set {
basis        aug-cc-pVTZ
scf_type     df
}

energy("sapt2+")
--------------------------------------------------------------------------

  //              Dimer HF             //
    Molecular point group: c1
  Charge       = 0
  Multiplicity = 1
  Basis Set: AUG-CC-PVTZ
    Blend: AUG-CC-PVTZ
  Basis Set: (AUG-CC-PVTZ AUX)
    Blend: AUG-CC-PVTZ-JKFIT
  @DF-RHF Final Energy:  -308.29302875903539
    Total Energy =                       -308.2930287590353942
 Dipole X            :         -0.9049626           -0.0000019           -0.9049645
 Dipole Y            :          0.1749799            0.0000057            0.1749856
 Dipole Z            :          0.2922013            0.0000019            0.2922032
 Magnitude           :                                                    0.9669350
  //            Monomer A HF           //
    Molecular point group: c1
  Multiplicity = 1
  Basis Set: AUG-CC-PVTZ
    Blend: AUG-CC-PVTZ
  Basis Set: (AUG-CC-PVTZ AUX)
    Blend: AUG-CC-PVTZ-JKFIT
  @DF-RHF Final Energy:  -154.14559802699478
    Total Energy =                       -154.1455980269947759
  //            Monomer B HF           //
    Molecular point group: c1

    Geometry (in Angstrom), charge = 0, multiplicity = 1:

       Center              X                  Y                   Z               Mass
    ------------   -----------------  -----------------  -----------------  -----------------
      Gh(C)          -1.728409000000     1.254876000000    -0.147483000000    12.000000000000
      Gh(C)          -2.155839000000    -0.184467000000    -0.161942000000    12.000000000000
      Gh(O)          -1.284854000000    -0.905180000000     0.697135000000    15.994914619570
      Gh(H)          -1.579809000000    -1.816618000000     0.758447000000     1.007825032230
      Gh(H)          -2.379735000000     1.857622000000    -0.781622000000     1.007825032230
      Gh(H)          -0.705888000000     1.354837000000    -0.519189000000     1.007825032230
      Gh(H)          -1.764807000000     1.654841000000     0.867529000000     1.007825032230
      Gh(H)          -2.104620000000    -0.586825000000    -1.182497000000     1.007825032230
      Gh(H)          -3.193108000000    -0.281229000000     0.182657000000     1.007825032230
         C            2.200284000000     0.356176000000     0.934402000000    12.000000000000
         C            1.925813000000     0.266620000000    -0.546673000000    12.000000000000
         O            1.131569000000    -0.840507000000    -0.881891000000    15.994914619570
         H            0.381752000000    -0.875127000000    -0.267210000000     1.007825032230
         H            2.843390000000     1.207352000000     1.168566000000     1.007825032230
         H            2.687622000000    -0.554241000000     1.289671000000     1.007825032230
         H            1.265309000000     0.476477000000     1.490262000000     1.007825032230
         H            2.861322000000     0.162718000000    -1.104886000000     1.007825032230
         H            1.463757000000     1.206462000000    -0.893503000000     1.007825032230

  Charge       = 0
  Multiplicity = 1
  Basis Set: AUG-CC-PVTZ
    Blend: AUG-CC-PVTZ
  Basis Set: (AUG-CC-PVTZ AUX)
    Blend: AUG-CC-PVTZ-JKFIT

    Orbital Energies [Eh]
    ---------------------

    Doubly Occupied:

       1A    -20.556826     2A    -11.273287     3A    -11.219868
       4A     -1.362853     5A     -1.014115     6A     -0.849262
       7A     -0.682269     8A     -0.627440     9A     -0.618794
      10A     -0.541093    11A     -0.528556    12A     -0.482478
      13A     -0.440202

  @DF-RHF Final Energy:  -154.14434334276896

   => Energetics <=

    Nuclear Repulsion Energy =             82.2420369188398581
    One-Electron Energy =                -372.3786743917814874
    Two-Electron Energy =                 135.9922941301726667
    Total Energy =                       -154.1443433427689627
 Dipole X            :        -85.7072490           85.6278107           -0.0794383
 Dipole Y            :          3.0251218           -2.5769042            0.4482176
 Dipole Z            :          6.3103285           -5.7558299            0.5544986
 Magnitude           :                                                    0.7174108

    SAPT Results
  --------------------------------------------------------------------------------------------------------
    Electrostatics                -15.88654158 [mEh]      -9.96895535 [kcal/mol]     -41.71010918 [kJ/mol]
      Elst10,r                    -15.20473526 [mEh]      -9.54111542 [kcal/mol]     -39.92002693 [kJ/mol]
      Elst12,r                     -0.68180632 [mEh]      -0.42783993 [kcal/mol]      -1.79008225 [kJ/mol]

    Exchange                       19.87983061 [mEh]      12.47478205 [kcal/mol]      52.19448808 [kJ/mol]
      Exch10                       16.95614196 [mEh]      10.64013972 [kcal/mol]      44.51834459 [kJ/mol]
      Exch10(S^2)                  16.82966162 [mEh]      10.56077211 [kcal/mol]      44.18627049 [kJ/mol]
      Exch11(S^2)                   0.22120015 [mEh]       0.13880519 [kcal/mol]       0.58076090 [kJ/mol]
      Exch12(S^2)                   2.70248850 [mEh]       1.69583714 [kcal/mol]       7.09538259 [kJ/mol]

    Induction                      -5.34520052 [mEh]      -3.35416396 [kcal/mol]     -14.03382202 [kJ/mol]
      Ind20,r                      -7.24227594 [mEh]      -4.54459677 [kcal/mol]     -19.01459287 [kJ/mol]
      Ind22                        -1.34124244 [mEh]      -0.84164234 [kcal/mol]      -3.52143154 [kJ/mol]
      Exch-Ind20,r                  4.50785497 [mEh]       2.82872170 [kcal/mol]      11.83537160 [kJ/mol]
      Exch-Ind22                    0.83483790 [mEh]       0.52386869 [kcal/mol]       2.19186659 [kJ/mol]
      delta HF,r (2)               -2.10437500 [mEh]      -1.32051525 [kcal/mol]      -5.52503580 [kJ/mol]

    Dispersion                     -9.54844846 [mEh]      -5.99174187 [kcal/mol]     -25.06944798 [kJ/mol]
      Disp20                       -9.85379227 [mEh]      -6.18334800 [kcal/mol]     -25.87112805 [kJ/mol]
      Disp21                        0.60411770 [mEh]       0.37908958 [kcal/mol]       1.58611079 [kJ/mol]
      Disp22 (SDQ)                 -0.06134087 [mEh]      -0.03849198 [kcal/mol]      -0.16105042 [kJ/mol]
      Disp22 (T)                   -1.47997952 [mEh]      -0.92870117 [kcal/mol]      -3.88568570 [kJ/mol]
      Est. Disp22 (T)              -1.68093373 [mEh]      -1.05480184 [kcal/mol]      -4.41329089 [kJ/mol]
      Exch-Disp20                   1.44350071 [mEh]       0.90581037 [kcal/mol]       3.78991059 [kJ/mol]

  Total HF                         -3.08738927 [mEh]      -1.93736602 [kcal/mol]      -8.10593942 [kJ/mol]
  Total SAPT0                     -11.49768084 [mEh]      -7.21490365 [kcal/mol]     -30.18715687 [kJ/mol]
  Total SAPT2                      -9.76220305 [mEh]      -6.12587490 [kcal/mol]     -25.63066058 [kJ/mol]
  Total SAPT2+                    -10.90035995 [mEh]      -6.84007914 [kcal/mol]     -28.61889110 [kJ/mol]

  Special recipe for scaled SAPT0 (see Manual):
    Electrostatics sSAPT0         -15.20473526 [mEh]      -9.54111542 [kcal/mol]     -39.92002693 [kJ/mol]
    Exchange sSAPT0                16.95614196 [mEh]      10.64013972 [kcal/mol]      44.51834459 [kJ/mol]
    Induction sSAPT0               -4.73639629 [mEh]      -2.97213354 [kcal/mol]     -12.43540674 [kJ/mol]
    Dispersion sSAPT0              -8.37750124 [mEh]      -5.25696140 [kcal/mol]     -21.99512648 [kJ/mol]
  Total sSAPT0                    -11.36249083 [mEh]      -7.13007064 [kcal/mol]     -29.83221556 [kJ/mol]
  --------------------------------------------------------------------------------------------------------

*** Psi4 exiting successfully. Buy a developer a beer!
