                               Psi4 1.9 release

  ==> Input File <==

--------------------------------------------------------------------------
MEMORY 10 GB

molecule dimer {
0 1
C   -1.293433   0.977734   0.582155
C   -1.697697  -0.119261  -0.369663
O   -3.004856  -0.591736  -0.138850
H   -3.604335   0.157887  -0.173882
H   -0.261743   1.295688   0.406944
H   -1.383760   0.637179   1.616441
H   -1.937873   1.853832   0.459971
H   -1.042307  -0.988013  -0.249493
H   -1.579452   0.220487  -1.409929
--
0 1
C    1.810897  -1.169369   0.598404
C    1.982063  -0.248703  -0.583258
O    2.118234   1.102081  -0.201091
H    2.852989   1.171537   0.413824
H    1.654232  -2.200924   0.275950
H    0.953609  -0.862743   1.202615
H    2.697885  -1.153732   1.238767
H    1.098806  -0.286698  -1.228218
H    2.833951  -0.569664  -1.199291

units ang
no_reorient
no_com
symmetry c1
}

set {
basis        aug-cc-pVTZ
scf_type     df
}

energy("sapt2+")
--------------------------------------------------------------------------

  //              Dimer HF             //
    Molecular point group: c1
  Charge       = 0
  Multiplicity = 1
  Basis Set: AUG-CC-PVTZ
    Blend: AUG-CC-PVTZ
  Basis Set: (AUG-CC-PVTZ AUX)
    Blend: AUG-CC-PVTZ-JKFIT
  @DF-RHF Final Energy:  -308.28765365078885
    Total Energy =                       -308.2876536507888545
 Dipole X            :          0.6866950            0.0000113            0.6867064
 Dipole Y            :          0.1397359            0.0000038            0.1397397
 Dipole Z            :          0.1471359           -0.0000019            0.1471340
 Magnitude           :                                                    0.7160595
  //            Monomer A HF           //
    Molecular point group: c1
  Multiplicity = 1
  Basis Set: AUG-CC-PVTZ
    Blend: AUG-CC-PVTZ
  Basis Set: (AUG-CC-PVTZ AUX)
    Blend: AUG-CC-PVTZ-JKFIT
  @DF-RHF Final Energy:  -154.14500757104017
    Total Energy =                       -154.1450075710401677
  //            Monomer B HF           //
    Molecular point group: c1

    Geometry (in Angstrom), charge = 0, multiplicity = 1:

       Center              X                  Y                   Z               Mass
    ------------   -----------------  -----------------  -----------------  -----------------
      Gh(C)          -1.293433000000     0.977734000000     0.582155000000    12.000000000000
      Gh(C)          -1.697697000000    -0.119261000000    -0.369663000000    12.000000000000
      Gh(O)          -3.004856000000    -0.591736000000    -0.138850000000    15.994914619570
      Gh(H)          -3.604335000000     0.157887000000    -0.173882000000     1.007825032230
      Gh(H)          -0.261743000000     1.295688000000     0.406944000000     1.007825032230
      Gh(H)          -1.383760000000     0.637179000000     1.616441000000     1.007825032230
      Gh(H)          -1.937873000000     1.853832000000     0.459971000000     1.007825032230
      Gh(H)          -1.042307000000    -0.988013000000    -0.249493000000     1.007825032230
      Gh(H)          -1.579452000000     0.220487000000    -1.409929000000     1.007825032230
         C            1.810897000000    -1.169369000000     0.598404000000    12.000000000000
         C            1.982063000000    -0.248703000000    -0.583258000000    12.000000000000
         O            2.118234000000     1.102081000000    -0.201091000000    15.994914619570
         H            2.852989000000     1.171537000000     0.413824000000     1.007825032230
         H            1.654232000000    -2.200924000000     0.275950000000     1.007825032230
         H            0.953609000000    -0.862743000000     1.202615000000     1.007825032230
         H            2.697885000000    -1.153732000000     1.238767000000     1.007825032230
         H            1.098806000000    -0.286698000000    -1.228218000000     1.007825032230
         H            2.833951000000    -0.569664000000    -1.199291000000     1.007825032230

  Charge       = 0
  Multiplicity = 1
  Basis Set: AUG-CC-PVTZ
    Blend: AUG-CC-PVTZ
  Basis Set: (AUG-CC-PVTZ AUX)
    Blend: AUG-CC-PVTZ-JKFIT

    Orbital Energies [Eh]
    ---------------------

    Doubly Occupied:

       1A    -20.555371     2A    -11.273524     3A    -11.218688
       4A     -1.361892     5A     -1.014505     6A     -0.848759
       7A     -0.686477     8A     -0.625680     9A     -0.613143
      10A     -0.543405    11A     -0.526528    12A     -0.481165
      13A     -0.442920

  @DF-RHF Final Energy:  -154.14512088141211

   => Energetics <=

    Nuclear Repulsion Energy =             82.1411971087625972
    One-Electron Energy =                -372.1885206373282244
    Two-Electron Energy =                 135.9022026471535298
    Total Energy =                       -154.1451208814121117
 Dipole X            :        -97.5179271           97.8785612            0.3606341
 Dipole Y            :          6.2233067           -6.7916908           -0.5683841
 Dipole Z            :          1.7729950           -1.5386245            0.2343705
 Magnitude           :                                                    0.7127741

    SAPT Results
  --------------------------------------------------------------------------------------------------------
    Electrostatics                 -3.82597592 [mEh]      -2.40083614 [kcal/mol]     -10.04509840 [kJ/mol]
      Elst10,r                     -3.44855203 [mEh]      -2.16399907 [kcal/mol]      -9.05417212 [kJ/mol]
      Elst12,r                     -0.37742389 [mEh]      -0.23683707 [kcal/mol]      -0.99092628 [kJ/mol]

    Exchange                        7.74333185 [mEh]       4.85901409 [kcal/mol]      20.33011497 [kJ/mol]
      Exch10                        6.93097470 [mEh]       4.34925229 [kcal/mol]      18.19727158 [kJ/mol]
      Exch10(S^2)                   6.91238236 [mEh]       4.33758541 [kcal/mol]      18.14845737 [kJ/mol]
      Exch11(S^2)                   0.11196302 [mEh]       0.07025786 [kcal/mol]       0.29395888 [kJ/mol]
      Exch12(S^2)                   0.70039412 [mEh]       0.43950395 [kcal/mol]       1.83888451 [kJ/mol]

    Induction                      -1.05811136 [mEh]      -0.66397490 [kcal/mol]      -2.77807099 [kJ/mol]
      Ind20,r                      -1.74986251 [mEh]      -1.09805530 [kcal/mol]      -4.59426338 [kJ/mol]
      Ind22                        -0.18504910 [mEh]      -0.11612006 [kcal/mol]      -0.48584634 [kJ/mol]
      Exch-Ind20,r                  1.27241527 [mEh]       0.79845264 [kcal/mol]       3.34072584 [kJ/mol]
      Exch-Ind22                    0.13455874 [mEh]       0.08443688 [kcal/mol]       0.35328393 [kJ/mol]
      delta HF,r (2)               -0.53017377 [mEh]      -0.33268906 [kcal/mol]      -1.39197104 [kJ/mol]

    Dispersion                     -6.74751792 [mEh]      -4.23413142 [kcal/mol]     -17.71560586 [kJ/mol]
      Disp20                       -7.00490908 [mEh]      -4.39564681 [kcal/mol]     -18.39138625 [kJ/mol]
      Disp21                        0.32910256 [mEh]       0.20651498 [kcal/mol]       0.86405866 [kJ/mol]
      Disp22 (SDQ)                  0.24567126 [mEh]       0.15416104 [kcal/mol]       0.64500980 [kJ/mol]
      Disp22 (T)                   -0.94226473 [mEh]      -0.59128005 [kcal/mol]      -2.47391571 [kJ/mol]
      Est. Disp22 (T)              -1.05621194 [mEh]      -0.66278300 [kcal/mol]      -2.77308407 [kJ/mol]
      Exch-Disp20                   0.73882928 [mEh]       0.46362237 [kcal/mol]       1.93979600 [kJ/mol]

  Total HF                          2.47480166 [mEh]       1.55296149 [kcal/mol]       6.49759087 [kJ/mol]
  Total SAPT0                      -3.79127814 [mEh]      -2.37906295 [kcal/mol]      -9.95399938 [kJ/mol]
  Total SAPT2                      -3.40683523 [mEh]      -2.13782138 [kcal/mol]      -8.94464467 [kJ/mol]
  Total SAPT2+                     -3.88827335 [mEh]      -2.43992837 [kcal/mol]     -10.20866028 [kJ/mol]

  Special recipe for scaled SAPT0 (see Manual):
    Electrostatics sSAPT0          -3.44855203 [mEh]      -2.16399907 [kcal/mol]      -9.05417212 [kJ/mol]
    Exchange sSAPT0                 6.93097470 [mEh]       4.34925229 [kcal/mol]      18.19727158 [kJ/mol]
    Induction sSAPT0               -0.99732606 [mEh]      -0.62583155 [kcal/mol]      -2.61847920 [kJ/mol]
    Dispersion sSAPT0              -6.26010203 [mEh]      -3.92827333 [kcal/mol]     -16.43589561 [kJ/mol]
  Total sSAPT0                     -3.77500542 [mEh]      -2.36885166 [kcal/mol]      -9.91127535 [kJ/mol]
  --------------------------------------------------------------------------------------------------------

*** Psi4 exiting successfully. Buy a developer a beer!
