                               Psi4 1.9 release

  ==> Input File <==

--------------------------------------------------------------------------
MEMORY 10 GB

molecule dimer {
0 1
C    1.482875   0.599326   1.057575
C    1.592743  -0.337024  -0.117878
O    2.745067  -0.104602  -0.897001
H    3.510171  -0.141707  -0.317682
H    0.553069   0.421665   1.601202
H    1.501320   1.639267   0.722795
H    2.316519   0.455528   1.752186
H    0.740222  -0.202261  -0.789559
H    1.552188  -1.380872   0.226783
--
0 1
C   -2.064222   1.139739  -0.315893
C   -2.183250  -0.350811  -0.463909
O   -1.554399  -0.950237   0.649269
H   -1.620092  -1.903905   0.571784
H   -2.557850   1.653322  -1.142146
H   -1.014800   1.441947  -0.301056
H   -2.522953   1.466473   0.619203
H   -1.710337  -0.675620  -1.402614
H   -3.241673  -0.642500  -0.518410

units ang
no_reorient
no_com
symmetry c1
}

set {
basis        aug-cc-pVTZ
scf_type     df
}

energy("sapt2+")
--------------------------------------------------------------------------

  //              Dimer HF             //
    Molecular point group: c1
  Charge       = 0
  Multiplicity = 1
  Basis Set: AUG-CC-PVTZ
    Blend: AUG-CC-PVTZ
  Basis Set: (AUG-CC-PVTZ AUX)
    Blend: AUG-CC-PVTZ-JKFIT
  @DF-RHF Final Energy:  -308.28893282705741
    Total Energy =                       -308.2889328270574083
 Dipole X            :         -0.4680104            0.0000076           -0.4680028
 Dipole Y            :         -0.4200754            0.0000094           -0.4200660
 Dipole Z            :          0.2375386           -0.0000000            0.2375386
 Magnitude           :                                                    0.6722400
  //            Monomer A HF           //
    Molecular point group: c1
  Multiplicity = 1
  Basis Set: AUG-CC-PVTZ
    Blend: AUG-CC-PVTZ
  Basis Set: (AUG-CC-PVTZ AUX)
    Blend: AUG-CC-PVTZ-JKFIT
  @DF-RHF Final Energy:  -154.14501150375830
    Total Energy =                       -154.1450115037582975
  //            Monomer B HF           //
    Molecular point group: c1

    Geometry (in Angstrom), charge = 0, multiplicity = 1:

       Center              X                  Y                   Z               Mass
    ------------   -----------------  -----------------  -----------------  -----------------
      Gh(C)           1.482875000000     0.599326000000     1.057575000000    12.000000000000
      Gh(C)           1.592743000000    -0.337024000000    -0.117878000000    12.000000000000
      Gh(O)           2.745067000000    -0.104602000000    -0.897001000000    15.994914619570
      Gh(H)           3.510171000000    -0.141707000000    -0.317682000000     1.007825032230
      Gh(H)           0.553069000000     0.421665000000     1.601202000000     1.007825032230
      Gh(H)           1.501320000000     1.639267000000     0.722795000000     1.007825032230
      Gh(H)           2.316519000000     0.455528000000     1.752186000000     1.007825032230
      Gh(H)           0.740222000000    -0.202261000000    -0.789559000000     1.007825032230
      Gh(H)           1.552188000000    -1.380872000000     0.226783000000     1.007825032230
         C           -2.064222000000     1.139739000000    -0.315893000000    12.000000000000
         C           -2.183250000000    -0.350811000000    -0.463909000000    12.000000000000
         O           -1.554399000000    -0.950237000000     0.649269000000    15.994914619570
         H           -1.620092000000    -1.903905000000     0.571784000000     1.007825032230
         H           -2.557850000000     1.653322000000    -1.142146000000     1.007825032230
         H           -1.014800000000     1.441947000000    -0.301056000000     1.007825032230
         H           -2.522953000000     1.466473000000     0.619203000000     1.007825032230
         H           -1.710337000000    -0.675620000000    -1.402614000000     1.007825032230
         H           -3.241673000000    -0.642500000000    -0.518410000000     1.007825032230

  Charge       = 0
  Multiplicity = 1
  Basis Set: AUG-CC-PVTZ
    Blend: AUG-CC-PVTZ
  Basis Set: (AUG-CC-PVTZ AUX)
    Blend: AUG-CC-PVTZ-JKFIT

    Orbital Energies [Eh]
    ---------------------

    Doubly Occupied:

       1A    -20.555724     2A    -11.273797     3A    -11.210831
       4A     -1.361615     5A     -1.014057     6A     -0.833277
       7A     -0.703241     8A     -0.645529     9A     -0.573804
      10A     -0.533520    11A     -0.524271    12A     -0.489178
      13A     -0.440127

  @DF-RHF Final Energy:  -154.14566914875203

   => Energetics <=

    Nuclear Repulsion Energy =             82.2455209270036107
    One-Electron Energy =                -372.4644346662893213
    Two-Electron Energy =                 136.0732445905336760
    Total Energy =                       -154.1456691487520345
 Dipole X            :         95.3013899          -95.5969531           -0.2955632
 Dipole Y            :          2.5774179           -2.8886561           -0.3112382
 Dipole Z            :          2.6341597           -3.1329751           -0.4988154
 Magnitude           :                                                    0.6580605

    SAPT Results
  --------------------------------------------------------------------------------------------------------
    Electrostatics                 -3.60362257 [mEh]      -2.26130730 [kcal/mol]      -9.46130975 [kJ/mol]
      Elst10,r                     -3.22384388 [mEh]      -2.02299258 [kcal/mol]      -8.46420095 [kJ/mol]
      Elst12,r                     -0.37977868 [mEh]      -0.23831472 [kcal/mol]      -0.99710880 [kJ/mol]

    Exchange                        6.70683307 [mEh]       4.20860129 [kcal/mol]      17.60878780 [kJ/mol]
      Exch10                        5.79845605 [mEh]       3.63858610 [kcal/mol]      15.22384425 [kJ/mol]
      Exch10(S^2)                   5.78201848 [mEh]       3.62827137 [kcal/mol]      15.18068742 [kJ/mol]
      Exch11(S^2)                   0.07708696 [mEh]       0.04837280 [kcal/mol]       0.20239179 [kJ/mol]
      Exch12(S^2)                   0.83129006 [mEh]       0.52164239 [kcal/mol]       2.18255175 [kJ/mol]

    Induction                      -0.89617462 [mEh]      -0.56235806 [kcal/mol]      -2.35290613 [kJ/mol]
      Ind20,r                      -1.61990547 [mEh]      -1.01650603 [kcal/mol]      -4.25306122 [kJ/mol]
      Ind22                        -0.25540027 [mEh]      -0.16026609 [kcal/mol]      -0.67055331 [kJ/mol]
      Exch-Ind20,r                  1.17980471 [mEh]       0.74033863 [kcal/mol]       3.09757683 [kJ/mol]
      Exch-Ind22                    0.18601236 [mEh]       0.11672452 [kcal/mol]       0.48837538 [kJ/mol]
      delta HF,r (2)               -0.38668595 [mEh]      -0.24264909 [kcal/mol]      -1.01524381 [kJ/mol]

    Dispersion                     -6.29810314 [mEh]      -3.95211939 [kcal/mol]     -16.53566753 [kJ/mol]
      Disp20                       -6.45203311 [mEh]      -4.04871190 [kcal/mol]     -16.93981060 [kJ/mol]
      Disp21                        0.35308272 [mEh]       0.22156275 [kcal/mol]       0.92701856 [kJ/mol]
      Disp22 (SDQ)                  0.14599289 [mEh]       0.09161192 [kcal/mol]       0.38330428 [kJ/mol]
      Disp22 (T)                   -0.90521301 [mEh]      -0.56802974 [kcal/mol]      -2.37663642 [kJ/mol]
      Est. Disp22 (T)              -1.01222751 [mEh]      -0.63518235 [kcal/mol]      -2.65760297 [kJ/mol]
      Exch-Disp20                   0.66708187 [mEh]       0.41860019 [kcal/mol]       1.75142321 [kJ/mol]

  Total HF                          1.74782545 [mEh]       1.09677703 [kcal/mol]       4.58891509 [kJ/mol]
  Total SAPT0                      -4.03712579 [mEh]      -2.53333468 [kcal/mol]     -10.59947230 [kJ/mol]
  Total SAPT2                      -3.57791536 [mEh]      -2.24517579 [kcal/mol]      -9.39381549 [kJ/mol]
  Total SAPT2+                     -4.09106726 [mEh]      -2.56718346 [kcal/mol]     -10.74109561 [kJ/mol]

  Special recipe for scaled SAPT0 (see Manual):
    Electrostatics sSAPT0          -3.22384388 [mEh]      -2.02299258 [kcal/mol]      -8.46420095 [kJ/mol]
    Exchange sSAPT0                 5.79845605 [mEh]       3.63858610 [kcal/mol]      15.22384425 [kJ/mol]
    Induction sSAPT0               -0.81669596 [mEh]      -0.51248445 [kcal/mol]      -2.14423494 [kJ/mol]
    Dispersion sSAPT0              -5.77924576 [mEh]      -3.62653146 [kcal/mol]     -15.17340765 [kJ/mol]
  Total sSAPT0                     -4.02132955 [mEh]      -2.52342239 [kcal/mol]     -10.55799928 [kJ/mol]
  --------------------------------------------------------------------------------------------------------

*** Psi4 exiting successfully. Buy a developer a beer!
