                               Psi4 1.9 release

  ==> Input File <==

--------------------------------------------------------------------------
MEMORY 10 GB

molecule dimer {
0 1
C   -2.778172   0.624847   0.000826
C   -1.732809  -0.373475   0.416468
O   -0.968075  -0.716773  -0.709505
H   -0.135570  -1.103673  -0.400866
H   -3.421680   0.896470   0.839545
H   -3.402079   0.209673  -0.792979
H   -2.306398   1.531793  -0.384636
H   -2.212801  -1.262479   0.854013
H   -1.096178   0.058875   1.205825
--
0 1
C    1.581069   1.350436   0.102510
C    2.218628   0.051191  -0.316310
O    1.652807  -1.071042   0.343394
H    1.745016  -0.947480   1.292001
H    2.046475   2.194352  -0.410242
H    1.696038   1.513941   1.178677
H    0.515407   1.344252  -0.137615
H    3.303770   0.075095  -0.153453
H    2.057845  -0.126298  -1.382349

units ang
no_reorient
no_com
symmetry c1
}

set {
basis        aug-cc-pVTZ
scf_type     df
}

energy("sapt2+")
--------------------------------------------------------------------------

  //              Dimer HF             //
    Molecular point group: c1
  Charge       = 0
  Multiplicity = 1
  Basis Set: AUG-CC-PVTZ
    Blend: AUG-CC-PVTZ
  Basis Set: (AUG-CC-PVTZ AUX)
    Blend: AUG-CC-PVTZ-JKFIT
  @DF-RHF Final Energy:  -308.29244780268550
    Total Energy =                       -308.2924478026855013
 Dipole X            :          0.6684295           -0.0000057            0.6684238
 Dipole Y            :          0.5142220           -0.0000094            0.5142125
 Dipole Z            :          0.8793200           -0.0000057            0.8793143
 Magnitude           :                                                    1.2183590
  //            Monomer A HF           //
    Molecular point group: c1
  Multiplicity = 1
  Basis Set: AUG-CC-PVTZ
    Blend: AUG-CC-PVTZ
  Basis Set: (AUG-CC-PVTZ AUX)
    Blend: AUG-CC-PVTZ-JKFIT
  @DF-RHF Final Energy:  -154.14463257321515
    Total Energy =                       -154.1446325732151479
  //            Monomer B HF           //
    Molecular point group: c1

    Geometry (in Angstrom), charge = 0, multiplicity = 1:

       Center              X                  Y                   Z               Mass
    ------------   -----------------  -----------------  -----------------  -----------------
      Gh(C)          -2.778172000000     0.624847000000     0.000826000000    12.000000000000
      Gh(C)          -1.732809000000    -0.373475000000     0.416468000000    12.000000000000
      Gh(O)          -0.968075000000    -0.716773000000    -0.709505000000    15.994914619570
      Gh(H)          -0.135570000000    -1.103673000000    -0.400866000000     1.007825032230
      Gh(H)          -3.421680000000     0.896470000000     0.839545000000     1.007825032230
      Gh(H)          -3.402079000000     0.209673000000    -0.792979000000     1.007825032230
      Gh(H)          -2.306398000000     1.531793000000    -0.384636000000     1.007825032230
      Gh(H)          -2.212801000000    -1.262479000000     0.854013000000     1.007825032230
      Gh(H)          -1.096178000000     0.058875000000     1.205825000000     1.007825032230
         C            1.581069000000     1.350436000000     0.102510000000    12.000000000000
         C            2.218628000000     0.051191000000    -0.316310000000    12.000000000000
         O            1.652807000000    -1.071042000000     0.343394000000    15.994914619570
         H            1.745016000000    -0.947480000000     1.292001000000     1.007825032230
         H            2.046475000000     2.194352000000    -0.410242000000     1.007825032230
         H            1.696038000000     1.513941000000     1.178677000000     1.007825032230
         H            0.515407000000     1.344252000000    -0.137615000000     1.007825032230
         H            3.303770000000     0.075095000000    -0.153453000000     1.007825032230
         H            2.057845000000    -0.126298000000    -1.382349000000     1.007825032230

  Charge       = 0
  Multiplicity = 1
  Basis Set: AUG-CC-PVTZ
    Blend: AUG-CC-PVTZ
  Basis Set: (AUG-CC-PVTZ AUX)
    Blend: AUG-CC-PVTZ-JKFIT

    Orbital Energies [Eh]
    ---------------------

    Doubly Occupied:

       1A    -20.554434     2A    -11.273786     3A    -11.218970
       4A     -1.357897     5A     -1.015357     6A     -0.848009
       7A     -0.685306     8A     -0.624275     9A     -0.611365
      10A     -0.544650    11A     -0.525151    12A     -0.481707
      13A     -0.443616

  @DF-RHF Final Energy:  -154.14505210348318

   => Energetics <=

    Nuclear Repulsion Energy =             81.9890040728961651
    One-Electron Energy =                -371.8990639079238463
    Two-Electron Energy =                 135.7650077315445287
    Total Energy =                       -154.1450521034831809
 Dipole X            :        -89.2668859           89.5450296            0.2781437
 Dipole Y            :         -6.7558848            7.3610275            0.6051427
 Dipole Z            :         -3.2215617            3.4985841            0.2770224
 Magnitude           :                                                    0.7213203

    SAPT Results
  --------------------------------------------------------------------------------------------------------
    Electrostatics                -16.30782467 [mEh]     -10.23331448 [kcal/mol]     -42.81618778 [kJ/mol]
      Elst10,r                    -15.37793382 [mEh]      -9.64979916 [kcal/mol]     -40.37475968 [kJ/mol]
      Elst12,r                     -0.92989086 [mEh]      -0.58351532 [kcal/mol]      -2.44142810 [kJ/mol]

    Exchange                       20.32992625 [mEh]      12.75722132 [kcal/mol]      53.37621402 [kJ/mol]
      Exch10                       17.16671338 [mEh]      10.77227528 [kcal/mol]      45.07119978 [kJ/mol]
      Exch10(S^2)                  17.04938549 [mEh]      10.69865092 [kcal/mol]      44.76315544 [kJ/mol]
      Exch11(S^2)                   0.15932708 [mEh]       0.09997925 [kcal/mol]       0.41831319 [kJ/mol]
      Exch12(S^2)                   3.00388579 [mEh]       1.88496679 [kcal/mol]       7.88670105 [kJ/mol]

    Induction                      -5.08521565 [mEh]      -3.19102100 [kcal/mol]     -13.35123186 [kJ/mol]
      Ind20,r                      -7.33220496 [mEh]      -4.60102808 [kcal/mol]     -19.25070148 [kJ/mol]
      Ind22                        -1.51422962 [mEh]      -0.95019343 [kcal/mol]      -3.97560933 [kJ/mol]
      Exch-Ind20,r                  4.74980998 [mEh]       2.98055076 [kcal/mol]      12.47062439 [kJ/mol]
      Exch-Ind22                    0.98091952 [mEh]       0.61553629 [kcal/mol]       2.57540385 [kJ/mol]
      delta HF,r (2)               -1.96951057 [mEh]      -1.23588654 [kcal/mol]      -5.17094930 [kJ/mol]

    Dispersion                     -9.66557692 [mEh]      -6.06524109 [kcal/mol]     -25.37696872 [kJ/mol]
      Disp20                       -9.98926470 [mEh]      -6.26835823 [kcal/mol]     -26.22681084 [kJ/mol]
      Disp21                        0.59423437 [mEh]       0.37288769 [kcal/mol]       1.56016211 [kJ/mol]
      Disp22 (SDQ)                 -0.06765025 [mEh]      -0.04245118 [kcal/mol]      -0.17761572 [kJ/mol]
      Disp22 (T)                   -1.51113127 [mEh]      -0.94824919 [kcal/mol]      -3.96747461 [kJ/mol]
      Est. Disp22 (T)              -1.71270434 [mEh]      -1.07473820 [kcal/mol]      -4.49670462 [kJ/mol]
      Exch-Disp20                   1.50980800 [mEh]       0.94741882 [kcal/mol]       3.96400035 [kJ/mol]

  Total HF                         -2.76312599 [mEh]      -1.73388773 [kcal/mol]      -7.25458628 [kJ/mol]
  Total SAPT0                     -11.24258269 [mEh]      -7.05482715 [kcal/mol]     -29.51739678 [kJ/mol]
  Total SAPT2                      -9.54257077 [mEh]      -5.98805357 [kcal/mol]     -25.05401612 [kJ/mol]
  Total SAPT2+                    -10.72869100 [mEh]      -6.73235524 [kcal/mol]     -28.16817434 [kJ/mol]

  Special recipe for scaled SAPT0 (see Manual):
    Electrostatics sSAPT0         -15.37793382 [mEh]      -9.64979916 [kcal/mol]     -40.37475968 [kJ/mol]
    Exchange sSAPT0                17.16671338 [mEh]      10.77227528 [kcal/mol]      45.07119978 [kJ/mol]
    Induction sSAPT0               -4.45316961 [mEh]      -2.79440612 [kcal/mol]     -11.69179521 [kJ/mol]
    Dispersion sSAPT0              -8.44807180 [mEh]      -5.30124509 [kcal/mol]     -22.18040945 [kJ/mol]
  Total sSAPT0                    -11.11246185 [mEh]      -6.97317509 [kcal/mol]     -29.17576456 [kJ/mol]
  --------------------------------------------------------------------------------------------------------

*** Psi4 exiting successfully. Buy a developer a beer!
