                               Psi4 1.9 release

  ==> Input File <==

--------------------------------------------------------------------------
MEMORY 10 GB

molecule dimer {
0 1
C    1.974603   1.240004  -0.086538
C    2.429081  -0.175606   0.167570
O    1.552014  -1.135343  -0.377610
H    1.457663  -0.963065  -1.318322
H    2.668199   1.961348   0.350216
H    0.984069   1.410923   0.341278
H    1.917815   1.443984  -1.160355
H    2.459990  -0.378546   1.241808
H    3.451501  -0.320847  -0.209464
--
0 1
C   -1.368389  -0.207777   1.160841
C   -1.681259  -0.174613  -0.312999
O   -2.993584   0.262357  -0.584871
H   -3.122636   1.110702  -0.153512
H   -0.365166  -0.605456   1.327451
H   -2.087134  -0.834449   1.692440
H   -1.413450   0.797739   1.593083
H   -1.601195  -1.178377  -0.738026
H   -0.941314   0.447882  -0.839997

units ang
no_reorient
no_com
symmetry c1
}

set {
basis        aug-cc-pVTZ
scf_type     df
}

energy("sapt2+")
--------------------------------------------------------------------------

  //              Dimer HF             //
    Molecular point group: c1
  Charge       = 0
  Multiplicity = 1
  Basis Set: AUG-CC-PVTZ
    Blend: AUG-CC-PVTZ
  Basis Set: (AUG-CC-PVTZ AUX)
    Blend: AUG-CC-PVTZ-JKFIT
  @DF-RHF Final Energy:  -308.28791389518000
    Total Energy =                       -308.2879138951799973
 Dipole X            :          0.8946480           -0.0000038            0.8946442
 Dipole Y            :          0.7961094           -0.0000038            0.7961057
 Dipole Z            :          0.0879582           -0.0000076            0.0879507
 Magnitude           :                                                    1.2007946
  //            Monomer A HF           //
    Molecular point group: c1
  Multiplicity = 1
  Basis Set: AUG-CC-PVTZ
    Blend: AUG-CC-PVTZ
  Basis Set: (AUG-CC-PVTZ AUX)
    Blend: AUG-CC-PVTZ-JKFIT
  @DF-RHF Final Energy:  -154.14514477304002
    Total Energy =                       -154.1451447730400162
  //            Monomer B HF           //
    Molecular point group: c1

    Geometry (in Angstrom), charge = 0, multiplicity = 1:

       Center              X                  Y                   Z               Mass
    ------------   -----------------  -----------------  -----------------  -----------------
      Gh(C)           1.974603000000     1.240004000000    -0.086538000000    12.000000000000
      Gh(C)           2.429081000000    -0.175606000000     0.167570000000    12.000000000000
      Gh(O)           1.552014000000    -1.135343000000    -0.377610000000    15.994914619570
      Gh(H)           1.457663000000    -0.963065000000    -1.318322000000     1.007825032230
      Gh(H)           2.668199000000     1.961348000000     0.350216000000     1.007825032230
      Gh(H)           0.984069000000     1.410923000000     0.341278000000     1.007825032230
      Gh(H)           1.917815000000     1.443984000000    -1.160355000000     1.007825032230
      Gh(H)           2.459990000000    -0.378546000000     1.241808000000     1.007825032230
      Gh(H)           3.451501000000    -0.320847000000    -0.209464000000     1.007825032230
         C           -1.368389000000    -0.207777000000     1.160841000000    12.000000000000
         C           -1.681259000000    -0.174613000000    -0.312999000000    12.000000000000
         O           -2.993584000000     0.262357000000    -0.584871000000    15.994914619570
         H           -3.122636000000     1.110702000000    -0.153512000000     1.007825032230
         H           -0.365166000000    -0.605456000000     1.327451000000     1.007825032230
         H           -2.087134000000    -0.834449000000     1.692440000000     1.007825032230
         H           -1.413450000000     0.797739000000     1.593083000000     1.007825032230
         H           -1.601195000000    -1.178377000000    -0.738026000000     1.007825032230
         H           -0.941314000000     0.447882000000    -0.839997000000     1.007825032230

  Charge       = 0
  Multiplicity = 1
  Basis Set: AUG-CC-PVTZ
    Blend: AUG-CC-PVTZ
  Basis Set: (AUG-CC-PVTZ AUX)
    Blend: AUG-CC-PVTZ-JKFIT

    Orbital Energies [Eh]
    ---------------------

    Doubly Occupied:

       1A    -20.555705     2A    -11.273331     3A    -11.218959
       4A     -1.362420     5A     -1.015232     6A     -0.848343
       7A     -0.685901     8A     -0.626543     9A     -0.613886
      10A     -0.543433    11A     -0.527605    12A     -0.481396
      13A     -0.442261

  @DF-RHF Final Energy:  -154.14501983651931

   => Energetics <=

    Nuclear Repulsion Energy =             82.1592627212087478
    One-Electron Energy =                -372.2185370482998223
    Two-Electron Energy =                 135.9142544905717784
    Total Energy =                       -154.1450198365193103
 Dipole X            :         98.3399534          -97.8452094            0.4947440
 Dipole Y            :          1.1646078           -0.8644420            0.3001658
 Dipole Z            :         -5.7979083            6.2162976            0.4183892
 Magnitude           :                                                    0.7140873

    SAPT Results
  --------------------------------------------------------------------------------------------------------
    Electrostatics                 -3.41662997 [mEh]      -2.14396767 [kcal/mol]      -8.97036075 [kJ/mol]
      Elst10,r                     -2.90253146 [mEh]      -1.82136599 [kcal/mol]      -7.62059529 [kJ/mol]
      Elst12,r                     -0.51409851 [mEh]      -0.32260169 [kcal/mol]      -1.34976546 [kJ/mol]

    Exchange                        6.91577436 [mEh]       4.33971393 [kcal/mol]      18.15736309 [kJ/mol]
      Exch10                        5.92630791 [mEh]       3.71881436 [kcal/mol]      15.55951928 [kJ/mol]
      Exch10(S^2)                   5.90590610 [mEh]       3.70601203 [kcal/mol]      15.50595434 [kJ/mol]
      Exch11(S^2)                   0.09490035 [mEh]       0.05955087 [kcal/mol]       0.24916082 [kJ/mol]
      Exch12(S^2)                   0.89456611 [mEh]       0.56134871 [kcal/mol]       2.34868299 [kJ/mol]

    Induction                      -0.84279396 [mEh]      -0.52886119 [kcal/mol]      -2.21275523 [kJ/mol]
      Ind20,r                      -1.66699640 [mEh]      -1.04605603 [kcal/mol]      -4.37669845 [kJ/mol]
      Ind22                        -0.30658416 [mEh]      -0.19238447 [kcal/mol]      -0.80493660 [kJ/mol]
      Exch-Ind20,r                  1.28784181 [mEh]       0.80813293 [kcal/mol]       3.38122820 [kJ/mol]
      Exch-Ind22                    0.23685228 [mEh]       0.14862705 [kcal/mol]       0.62185558 [kJ/mol]
      delta HF,r (2)               -0.39390748 [mEh]      -0.24718068 [kcal/mol]      -1.03420395 [kJ/mol]

    Dispersion                     -6.18604950 [mEh]      -3.88180467 [kcal/mol]     -16.24147072 [kJ/mol]
      Disp20                       -6.30208803 [mEh]      -3.95461994 [kcal/mol]     -16.54612984 [kJ/mol]
      Disp21                        0.31819697 [mEh]       0.19967161 [kcal/mol]       0.83542603 [kJ/mol]
      Disp22 (SDQ)                  0.12734451 [mEh]       0.07990989 [kcal/mol]       0.33434298 [kJ/mol]
      Disp22 (T)                   -0.89612660 [mEh]      -0.56232793 [kcal/mol]      -2.35278007 [kJ/mol]
      Est. Disp22 (T)              -1.00654513 [mEh]      -0.63161660 [kcal/mol]      -2.64268387 [kJ/mol]
      Exch-Disp20                   0.67704217 [mEh]       0.42485038 [kcal/mol]       1.77757398 [kJ/mol]

  Total HF                          2.25071438 [mEh]       1.41234460 [kcal/mol]       5.90924979 [kJ/mol]
  Total SAPT0                      -3.37433148 [mEh]      -2.11742497 [kcal/mol]      -8.85930607 [kJ/mol]
  Total SAPT2                      -2.96869542 [mEh]      -1.86288450 [kcal/mol]      -7.79430875 [kJ/mol]
  Total SAPT2+                     -3.52969906 [mEh]      -2.21491960 [kcal/mol]      -9.26722361 [kJ/mol]

  Special recipe for scaled SAPT0 (see Manual):
    Electrostatics sSAPT0          -2.90253146 [mEh]      -1.82136599 [kcal/mol]      -7.62059529 [kJ/mol]
    Exchange sSAPT0                 5.92630791 [mEh]       3.71881436 [kcal/mol]      15.55951928 [kJ/mol]
    Induction sSAPT0               -0.75966946 [mEh]      -0.47669979 [kcal/mol]      -1.99451190 [kJ/mol]
    Dispersion sSAPT0              -5.61800511 [mEh]      -3.52535143 [kcal/mol]     -14.75007040 [kJ/mol]
  Total sSAPT0                     -3.35389812 [mEh]      -2.10460285 [kcal/mol]      -8.80565831 [kJ/mol]
  --------------------------------------------------------------------------------------------------------

*** Psi4 exiting successfully. Buy a developer a beer!
