                               Psi4 1.9.1 release

  ==> Input File <==

--------------------------------------------------------------------------
MEMORY 10 GB

molecule dimer {
0 1
C    1.692201   1.096593  -0.243570
C    2.017833  -0.275781   0.291856
O    3.361927  -0.634928   0.075008
H    3.529878  -0.621228  -0.870503
H    0.661999   1.377762  -0.010886
H    1.805984   1.129258  -1.331396
H    2.359686   1.844763   0.188020
H    1.334107  -1.023484  -0.136677
H    1.871548  -0.305065   1.375240
--
0 1
C   -2.530674   1.107506   0.170734
C   -1.786504  -0.182798  -0.065222
O   -2.646477  -1.285557  -0.219769
H   -3.200148  -1.350483   0.562422
H   -1.842928   1.953264   0.245119
H   -3.101236   1.063683   1.103239
H   -3.230324   1.301607  -0.644293
H   -1.062389  -0.355954   0.746376
H   -1.206906  -0.123361  -0.991364

units ang
no_reorient
no_com
symmetry c1
}

set {
basis        aug-cc-pVTZ
scf_type     df
}

energy("sapt2+")
--------------------------------------------------------------------------

  //              Dimer HF             //
    Molecular point group: c1
  Charge       = 0
  Multiplicity = 1
  Basis Set: AUG-CC-PVTZ
    Blend: AUG-CC-PVTZ
  Basis Set: (AUG-CC-PVTZ AUX)
    Blend: AUG-CC-PVTZ-JKFIT
  @DF-RHF Final Energy:  -308.28816766300594
    Total Energy =                       -308.2881676630059360
 Dipole X            :         -0.4804986            0.0000132           -0.4804853
 Dipole Y            :          0.6545706            0.0000038            0.6545744
 Dipole Z            :          0.0466942           -0.0000057            0.0466886
 Magnitude           :                                                    0.8133348
  //            Monomer A HF           //
    Molecular point group: c1
  Multiplicity = 1
  Basis Set: AUG-CC-PVTZ
    Blend: AUG-CC-PVTZ
  Basis Set: (AUG-CC-PVTZ AUX)
    Blend: AUG-CC-PVTZ-JKFIT
  @DF-RHF Final Energy:  -154.14514280171838
    Total Energy =                       -154.1451428017183787
  //            Monomer B HF           //
    Molecular point group: c1

    Geometry (in Angstrom), charge = 0, multiplicity = 1:

       Center              X                  Y                   Z               Mass
    ------------   -----------------  -----------------  -----------------  -----------------
      Gh(C)           1.692201000000     1.096593000000    -0.243570000000    12.000000000000
      Gh(C)           2.017833000000    -0.275781000000     0.291856000000    12.000000000000
      Gh(O)           3.361927000000    -0.634928000000     0.075008000000    15.994914619570
      Gh(H)           3.529878000000    -0.621228000000    -0.870503000000     1.007825032230
      Gh(H)           0.661999000000     1.377762000000    -0.010886000000     1.007825032230
      Gh(H)           1.805984000000     1.129258000000    -1.331396000000     1.007825032230
      Gh(H)           2.359686000000     1.844763000000     0.188020000000     1.007825032230
      Gh(H)           1.334107000000    -1.023484000000    -0.136677000000     1.007825032230
      Gh(H)           1.871548000000    -0.305065000000     1.375240000000     1.007825032230
         C           -2.530674000000     1.107506000000     0.170734000000    12.000000000000
         C           -1.786504000000    -0.182798000000    -0.065222000000    12.000000000000
         O           -2.646477000000    -1.285557000000    -0.219769000000    15.994914619570
         H           -3.200148000000    -1.350483000000     0.562422000000     1.007825032230
         H           -1.842928000000     1.953264000000     0.245119000000     1.007825032230
         H           -3.101236000000     1.063683000000     1.103239000000     1.007825032230
         H           -3.230324000000     1.301607000000    -0.644293000000     1.007825032230
         H           -1.062389000000    -0.355954000000     0.746376000000     1.007825032230
         H           -1.206906000000    -0.123361000000    -0.991364000000     1.007825032230

  Charge       = 0
  Multiplicity = 1
  Basis Set: AUG-CC-PVTZ
    Blend: AUG-CC-PVTZ
  Basis Set: (AUG-CC-PVTZ AUX)
    Blend: AUG-CC-PVTZ-JKFIT

    Orbital Energies [Eh]
    ---------------------

    Doubly Occupied:

       1A    -20.555805     2A    -11.273466     3A    -11.218254
       4A     -1.363407     5A     -1.014280     6A     -0.848525
       7A     -0.687624     8A     -0.626303     9A     -0.612521
      10A     -0.544245    11A     -0.526486    12A     -0.480675
      13A     -0.442540

  @DF-RHF Final Energy:  -154.14512039126362

   => Energetics <=

    Nuclear Repulsion Energy =             82.1803304631503835
    One-Electron Energy =                -372.2626335076919304
    Two-Electron Energy =                 135.9371826532779437
    Total Energy =                       -154.1451203912636174
 Dipole X            :        114.7592293         -114.7419310            0.0172983
 Dipole Y            :          4.7202876           -4.2470688            0.4732188
 Dipole Z            :          0.7217448           -0.1957397            0.5260051
 Magnitude           :                                                    0.7077547

    SAPT Results
  --------------------------------------------------------------------------------------------------------
    Electrostatics                 -0.95766366 [mEh]      -0.60094302 [kcal/mol]      -2.51434559 [kJ/mol]
      Elst10,r                     -0.75706911 [mEh]      -0.47506804 [kcal/mol]      -1.98768466 [kJ/mol]
      Elst12,r                     -0.20059455 [mEh]      -0.12587498 [kcal/mol]      -0.52666093 [kJ/mol]

    Exchange                        3.49088090 [mEh]       2.19056084 [kcal/mol]       9.16530655 [kJ/mol]
      Exch10                        3.14252021 [mEh]       1.97196120 [kcal/mol]       8.25068568 [kJ/mol]
      Exch10(S^2)                   3.13534411 [mEh]       1.96745813 [kcal/mol]       8.23184482 [kJ/mol]
      Exch11(S^2)                   0.09608905 [mEh]       0.06029679 [kcal/mol]       0.25228175 [kJ/mol]
      Exch12(S^2)                   0.25227165 [mEh]       0.15830285 [kcal/mol]       0.66233911 [kJ/mol]

    Induction                      -0.30201390 [mEh]      -0.18951658 [kcal/mol]      -0.79293739 [kJ/mol]
      Ind20,r                      -0.62403280 [mEh]      -0.39158650 [kcal/mol]      -1.63839790 [kJ/mol]
      Ind22                        -0.08351826 [mEh]      -0.05240850 [kcal/mol]      -0.21927716 [kJ/mol]
      Exch-Ind20,r                  0.53367789 [mEh]       0.33488793 [kcal/mol]       1.40117110 [kJ/mol]
      Exch-Ind22                    0.07142549 [mEh]       0.04482017 [kcal/mol]       0.18752760 [kJ/mol]
      delta HF,r (2)               -0.19956621 [mEh]      -0.12522969 [kcal/mol]      -0.52396102 [kJ/mol]

    Dispersion                     -4.05659354 [mEh]      -2.54555088 [kcal/mol]     -10.65058487 [kJ/mol]
      Disp20                       -4.05077790 [mEh]      -2.54190151 [kcal/mol]     -10.63531592 [kJ/mol]
      Disp21                        0.06982809 [mEh]       0.04381779 [kcal/mol]       0.18333363 [kJ/mol]
      Disp22 (SDQ)                  0.19052139 [mEh]       0.11955398 [kcal/mol]       0.50021383 [kJ/mol]
      Disp22 (T)                   -0.55007205 [mEh]      -0.34517542 [kcal/mol]      -1.44421397 [kJ/mol]
      Est. Disp22 (T)              -0.61618297 [mEh]      -0.38666065 [kcal/mol]      -1.61778815 [kJ/mol]
      Exch-Disp20                   0.35001785 [mEh]       0.21963952 [kcal/mol]       0.91897174 [kJ/mol]

  Total HF                          2.09552998 [mEh]       1.31496491 [kcal/mol]       5.50181319 [kJ/mol]
  Total SAPT0                      -1.60523008 [mEh]      -1.00729708 [kcal/mol]      -4.21453098 [kJ/mol]
  Total SAPT2                      -1.46955671 [mEh]      -0.92216076 [kcal/mol]      -3.85832060 [kJ/mol]
  Total SAPT2+                     -1.82539020 [mEh]      -1.14544964 [kcal/mol]      -4.79256130 [kJ/mol]

  Special recipe for scaled SAPT0 (see Manual):
    Electrostatics sSAPT0          -0.75706911 [mEh]      -0.47506804 [kcal/mol]      -1.98768466 [kJ/mol]
    Exchange sSAPT0                 3.14252021 [mEh]       1.97196120 [kcal/mol]       8.25068568 [kJ/mol]
    Induction sSAPT0               -0.28624833 [mEh]      -0.17962354 [kcal/mol]      -0.75154488 [kJ/mol]
    Dispersion sSAPT0              -3.69835121 [mEh]      -2.32075042 [kcal/mol]      -9.71001976 [kJ/mol]
  Total sSAPT0                     -1.59914843 [mEh]      -1.00348079 [kcal/mol]      -4.19856362 [kJ/mol]
  --------------------------------------------------------------------------------------------------------

*** Psi4 exiting successfully. Buy a developer a beer!
