                               Psi4 1.9.1 release

  ==> Input File <==

--------------------------------------------------------------------------
MEMORY 10 GB

molecule dimer {
0 1
C    2.303132   0.769097   0.598623
C    1.771037  -0.610986   0.306818
O    1.096965  -0.672425  -0.955992
H    1.720340  -0.407252  -1.638962
H    2.779410   0.788335   1.576531
H    1.492158   1.491832   0.589266
H    3.046547   1.060996  -0.141675
H    1.016509  -0.890517   1.035624
H    2.564219  -1.357732   0.335502
--
0 1
C   -1.964227  -0.999466   0.617284
C   -2.099371   0.253092  -0.218274
O   -0.887911   0.985043  -0.286501
H   -0.219399   0.399362  -0.670419
H   -2.914596  -1.527000   0.678697
H   -1.642559  -0.746543   1.624645
H   -1.231576  -1.672479   0.176258
H   -2.831407   0.925021   0.222516
H   -2.449234  -0.003292  -1.220935

units ang
no_reorient
no_com
symmetry c1
}

set {
basis        aug-cc-pVTZ
scf_type     df
}

energy("mp2", bsse_type="cp")
--------------------------------------------------------------------------

                               Psi4 1.9.1 release
    Molecular point group: c1
  Charge       = 0
  Multiplicity = 1
  Basis Set: AUG-CC-PVTZ
    Blend: AUG-CC-PVTZ
  Basis Set: (AUG-CC-PVTZ AUX)
    Blend: AUG-CC-PVTZ-JKFIT
  @DF-RHF Final Energy:  -154.14493323098196
    Total Energy =                       -154.1449332309819624
 Dipole X            :         80.6956836          -80.8304782           -0.1347946
 Dipole Y            :         -2.1620154            1.4686366           -0.6933788
 Dipole Z            :         -1.8902736            1.7249685           -0.1653051
 Magnitude           :                                                    0.7254444
  Basis Set: (AUG-CC-PVTZ AUX)
    Blend: AUG-CC-PVTZ-RI
	 Reference Energy          =    -154.1449332309819624 [Eh]
	 Singles Energy            =      -0.0000000000000000 [Eh]
	 Same-Spin Energy          =      -0.1483559249564425 [Eh]
	 Opposite-Spin Energy      =      -0.5192181596465653 [Eh]
	 Correlation Energy        =      -0.6675740846030078 [Eh]
	 Total Energy              =    -154.8125073155849805 [Eh]
	 SCS Total Energy          =    -154.8174469975433283 [Eh]
                               Psi4 1.9.1 release
    Molecular point group: c1
  Multiplicity = 1
  Basis Set: AUG-CC-PVTZ
    Blend: AUG-CC-PVTZ
  Basis Set: (AUG-CC-PVTZ AUX)
    Blend: AUG-CC-PVTZ-JKFIT
  @DF-RHF Final Energy:  -154.14491985545288
    Total Energy =                       -154.1449198554528834
  Basis Set: (AUG-CC-PVTZ AUX)
	 Singles Energy            =      -0.0000000000000000 [Eh]
	 Same-Spin Energy          =      -0.1483290503198049 [Eh]
	 Opposite-Spin Energy      =      -0.5194098671662154 [Eh]
	 Correlation Energy        =      -0.6677389174860203 [Eh]
	 Total Energy              =    -154.8126587729389030 [Eh]
	 SCS Total Energy          =    -154.8176547128256004 [Eh]
                               Psi4 1.9.1 release
    Molecular point group: c1

    Geometry (in Bohr), charge = 0, multiplicity = 1:

       Center              X                  Y                   Z               Mass
    ------------   -----------------  -----------------  -----------------  -----------------
         C            4.352288710778     1.453382693911     1.131233522400    12.000000000000
         C            3.346774888052    -1.154596206489     0.579801990361    12.000000000000
         O            2.072963419213    -1.270699089911    -1.806563058129    15.994914619570
         H            3.250971442670    -0.769594744045    -3.097189310033     1.007825032230
         H            5.252323690359     1.489737245113     2.979211818294     1.007825032230
         H            2.819769955911     2.819153905194     1.113551355044     1.007825032230
         H            5.757139458335     2.004991860206    -0.267726948824     1.007825032230
         H            1.920923614063    -1.682833240064     1.957045728951     1.007825032230
         H            4.845671635695    -2.565741631770     0.634006894543     1.007825032230
         C           -3.711851078230    -1.888717011707     1.166497701627    12.000000000000
         C           -3.967236225729     0.478274564544    -0.412478080308    12.000000000000
         O           -1.677908613781     1.861461491799    -0.541408424670    15.994914619570
         H           -0.414604022199     0.754684804915    -1.266908299303     1.007825032230
         H           -5.507788206355    -2.885611793574     1.282551452170     1.007825032230
         H           -3.103986654906    -1.410761810878     3.070134101094     1.007825032230
         H           -2.327341342687    -3.160527260580     0.333079347421     1.007825032230
         H           -5.350583779704     1.748036350297     0.420494298532     1.007825032230
         H           -4.628381477160    -0.006220978405    -2.307232766986     1.007825032230

  Charge       = 0
  Multiplicity = 1
  Basis Set: AUG-CC-PVTZ
    Blend: AUG-CC-PVTZ
  Basis Set: (AUG-CC-PVTZ AUX)
    Blend: AUG-CC-PVTZ-JKFIT

    Orbital Energies [Eh]
    ---------------------

    Doubly Occupied:

       1A    -20.579103     2A    -20.518929     3A    -11.283861
       4A    -11.253207     5A    -11.218379     6A    -11.201515
       7A     -1.384102     8A     -1.328417     9A     -1.024717
      10A     -0.997852    11A     -0.860034    12A     -0.831657
      13A     -0.714638    14A     -0.664478    15A     -0.637817
      16A     -0.626476    17A     -0.602790    18A     -0.589664
      19A     -0.558700    20A     -0.534896    21A     -0.525318
      22A     -0.506988    23A     -0.496625    24A     -0.470596
      25A     -0.451313    26A     -0.417966

  @DF-RHF Final Energy:  -308.29092842816823

   => Energetics <=

    Nuclear Repulsion Energy =            263.8741730232125065
    One-Electron Energy =                -943.7701276343349264
    Two-Electron Energy =                 371.6050261829541910
    Total Energy =                       -308.2909284281682289
 Dipole X            :         -4.9488721            5.7944105            0.8455384
 Dipole Y            :          5.0815952           -5.6085238           -0.5269286
 Dipole Z            :         -0.8997674            0.8575766           -0.0421908
 Magnitude           :                                                    0.9971806
  Basis Set: (AUG-CC-PVTZ AUX)
    Blend: AUG-CC-PVTZ-RI
	 Reference Energy          =    -308.2909284281682289 [Eh]
	 Singles Energy            =      -0.0000000000000000 [Eh]
	 Same-Spin Energy          =      -0.3013864910921989 [Eh]
	 Opposite-Spin Energy      =      -1.0421380330466206 [Eh]
	 Correlation Energy        =      -1.3435245241388194 [Eh]
	 Total Energy              =    -309.6344529523070719 [Eh]

	 ================> DF-SCS-MP2 Energies <==================
	-----------------------------------------------------------
	 SCS Same-Spin Scale       =       0.3333333333333333 [-]
	 SCS Opposite-Spin Scale   =       1.2000000000000000 [-]
	 SCS Same-Spin Energy      =      -0.1004621636973996 [Eh]
	 SCS Opposite-Spin Energy  =      -1.2505656396559446 [Eh]
	 SCS Correlation Energy    =      -1.3510278033533443 [Eh]
	 SCS Total Energy          =    -309.6419562315215899 [Eh]
	-----------------------------------------------------------

*** Psi4 exiting successfully. Buy a developer a beer!
