                               Psi4 1.9.1 release

  ==> Input File <==

--------------------------------------------------------------------------
MEMORY 10 GB

molecule dimer {
0 1
C    2.303132   0.769097   0.598623
C    1.771037  -0.610986   0.306818
O    1.096965  -0.672425  -0.955992
H    1.720340  -0.407252  -1.638962
H    2.779410   0.788335   1.576531
H    1.492158   1.491832   0.589266
H    3.046547   1.060996  -0.141675
H    1.016509  -0.890517   1.035624
H    2.564219  -1.357732   0.335502
--
0 1
C   -2.486563  -0.563290   0.793465
C   -2.621707   0.689268  -0.042093
O   -1.410247   1.421219  -0.110320
H   -0.741735   0.835538  -0.494238
H   -3.436932  -1.090824   0.854878
H   -2.164895  -0.310367   1.800826
H   -1.753912  -1.236303   0.352439
H   -3.353743   1.361197   0.398697
H   -2.971570   0.432884  -1.044754

units ang
no_reorient
no_com
symmetry c1
}

set {
basis        aug-cc-pVTZ
scf_type     df
}

energy("mp2", bsse_type="cp")
--------------------------------------------------------------------------

                               Psi4 1.9.1 release
    Molecular point group: c1
  Charge       = 0
  Multiplicity = 1
  Basis Set: AUG-CC-PVTZ
    Blend: AUG-CC-PVTZ
  Basis Set: (AUG-CC-PVTZ AUX)
    Blend: AUG-CC-PVTZ-JKFIT
  @DF-RHF Final Energy:  -154.14487517035221
    Total Energy =                       -154.1448751703522078
 Dipole X            :        106.3594787         -106.4943498           -0.1348711
 Dipole Y            :        -23.5926254           22.8992193           -0.6934061
 Dipole Z            :        -10.5465219           10.3812483           -0.1652737
 Magnitude           :                                                    0.7254775
  Basis Set: (AUG-CC-PVTZ AUX)
    Blend: AUG-CC-PVTZ-RI
	 Reference Energy          =    -154.1448751703522078 [Eh]
	 Singles Energy            =      -0.0000000000000000 [Eh]
	 Same-Spin Energy          =      -0.1482861241306104 [Eh]
	 Opposite-Spin Energy      =      -0.5184940941520196 [Eh]
	 Correlation Energy        =      -0.6667802182826300 [Eh]
	 Total Energy              =    -154.8116553886348470 [Eh]
	 SCS Total Energy          =    -154.8164967913781709 [Eh]
                               Psi4 1.9.1 release
    Molecular point group: c1
  Multiplicity = 1
  Basis Set: AUG-CC-PVTZ
    Blend: AUG-CC-PVTZ
  Basis Set: (AUG-CC-PVTZ AUX)
    Blend: AUG-CC-PVTZ-JKFIT
  @DF-RHF Final Energy:  -154.14485873330045
    Total Energy =                       -154.1448587333004525
  Basis Set: (AUG-CC-PVTZ AUX)
	 Singles Energy            =      -0.0000000000000000 [Eh]
	 Same-Spin Energy          =      -0.1482407308193621 [Eh]
	 Opposite-Spin Energy      =      -0.5185733452145427 [Eh]
	 Correlation Energy        =      -0.6668140760339047 [Eh]
	 Total Energy              =    -154.8116728093343681 [Eh]
	 SCS Total Energy          =    -154.8165603244976865 [Eh]
                               Psi4 1.9.1 release
    Molecular point group: c1

    Geometry (in Bohr), charge = 0, multiplicity = 1:

       Center              X                  Y                   Z               Mass
    ------------   -----------------  -----------------  -----------------  -----------------
         C            4.352288710778     1.453382693911     1.131233522400    12.000000000000
         C            3.346774888052    -1.154596206489     0.579801990361    12.000000000000
         O            2.072963419213    -1.270699089911    -1.806563058129    15.994914619570
         H            3.250971442670    -0.769594744045    -3.097189310033     1.007825032230
         H            5.252323690359     1.489737245113     2.979211818294     1.007825032230
         H            2.819769955911     2.819153905194     1.113551355044     1.007825032230
         H            5.757139458335     2.004991860206    -0.267726948824     1.007825032230
         H            1.920923614063    -1.682833240064     1.957045728951     1.007825032230
         H            4.845671635695    -2.565741631770     0.634006894543     1.007825032230
         C           -4.698923063697    -1.064463829209     1.499431540136    12.000000000000
         C           -4.954308211196     1.302527747042    -0.079544241799    12.000000000000
         O           -2.664980599249     2.685714674297    -0.208474586161    15.994914619570
         H           -1.401676007666     1.578937987413    -0.933974460794     1.007825032230
         H           -6.494860191822    -2.061358611076     1.615485290679     1.007825032230
         H           -4.091058640373    -0.586508628380     3.403067939604     1.007825032230
         H           -3.314413328154    -2.336274078082     0.666013185930     1.007825032230
         H           -6.337655765171     2.572289532795     0.753428137042     1.007825032230
         H           -5.615453462627     0.818032204093    -1.974298928477     1.007825032230

  Charge       = 0
  Multiplicity = 1
  Basis Set: AUG-CC-PVTZ
    Blend: AUG-CC-PVTZ
  Basis Set: (AUG-CC-PVTZ AUX)
    Blend: AUG-CC-PVTZ-JKFIT

    Orbital Energies [Eh]
    ---------------------

    Doubly Occupied:

       1A    -20.567451     2A    -20.540593     3A    -11.279989
       4A    -11.261751     5A    -11.219454     6A    -11.206650
       7A     -1.366854     8A     -1.344279     9A     -1.022055
      10A     -1.004312    11A     -0.855421    12A     -0.837465
      13A     -0.697058    14A     -0.673833    15A     -0.630758
      16A     -0.618880    17A     -0.613173    18A     -0.597844
      19A     -0.552623    20A     -0.534619    21A     -0.531375
      22A     -0.515668    23A     -0.492146    24A     -0.471784
      25A     -0.455382    26A     -0.430765

  @DF-RHF Final Energy:  -308.29453221888082

   => Energetics <=

    Nuclear Repulsion Energy =            249.9012246727710647
    One-Electron Energy =                -915.7471461107525101
    Two-Electron Energy =                 357.5513892191006562
    Total Energy =                       -308.2945322188808177
 Dipole X            :         20.5571491          -19.8694611            0.6876880
 Dipole Y            :        -16.3138049           15.8220589           -0.4917460
 Dipole Z            :         -9.5257759            9.5138564           -0.0119195
 Magnitude           :                                                    0.8455005
  Basis Set: (AUG-CC-PVTZ AUX)
    Blend: AUG-CC-PVTZ-RI
	 Reference Energy          =    -308.2945322188808177 [Eh]
	 Singles Energy            =      -0.0000000000000000 [Eh]
	 Same-Spin Energy          =      -0.2982839803827133 [Eh]
	 Opposite-Spin Energy      =      -1.0384830382150363 [Eh]
	 Correlation Energy        =      -1.3367670185977496 [Eh]
	 Total Energy              =    -309.6312992374785722 [Eh]

	 ================> DF-SCS-MP2 Energies <==================
	-----------------------------------------------------------
	 SCS Same-Spin Scale       =       0.3333333333333333 [-]
	 SCS Opposite-Spin Scale   =       1.2000000000000000 [-]
	 SCS Same-Spin Energy      =      -0.0994279934609044 [Eh]
	 SCS Opposite-Spin Energy  =      -1.2461796458580434 [Eh]
	 SCS Correlation Energy    =      -1.3456076393189478 [Eh]
	 SCS Total Energy          =    -309.6401398581997455 [Eh]
	-----------------------------------------------------------

*** Psi4 exiting successfully. Buy a developer a beer!
