                               Psi4 1.9.1 release

  ==> Input File <==

--------------------------------------------------------------------------
MEMORY 10 GB

molecule dimer {
0 1
C    2.303132   0.769097   0.598623
C    1.771037  -0.610986   0.306818
O    1.096965  -0.672425  -0.955992
H    1.720340  -0.407252  -1.638962
H    2.779410   0.788335   1.576531
H    1.492158   1.491832   0.589266
H    3.046547   1.060996  -0.141675
H    1.016509  -0.890517   1.035624
H    2.564219  -1.357732   0.335502
--
0 1
C   -1.859760  -1.086701   0.582047
C   -1.994904   0.165857  -0.253511
O   -0.783444   0.897808  -0.321738
H   -0.114932   0.312127  -0.705656
H   -2.810129  -1.614235   0.643460
H   -1.538092  -0.833778   1.589408
H   -1.127109  -1.759714   0.141021
H   -2.726940   0.837786   0.187279
H   -2.344767  -0.090527  -1.256172

units ang
no_reorient
no_com
symmetry c1
}

set {
basis        aug-cc-pVTZ
scf_type     df
}

energy("mp2", bsse_type="cp")
--------------------------------------------------------------------------

                               Psi4 1.9.1 release
    Molecular point group: c1
  Charge       = 0
  Multiplicity = 1
  Basis Set: AUG-CC-PVTZ
    Blend: AUG-CC-PVTZ
  Basis Set: (AUG-CC-PVTZ AUX)
    Blend: AUG-CC-PVTZ-JKFIT
  @DF-RHF Final Energy:  -154.14495131489170
    Total Energy =                       -154.1449513148916992
 Dipole X            :         75.5629435          -75.6977137           -0.1347702
 Dipole Y            :          2.1241033           -2.8174702           -0.6933669
 Dipole Z            :         -0.1589686           -0.0063268           -0.1652954
 Magnitude           :                                                    0.7254262
  Basis Set: (AUG-CC-PVTZ AUX)
    Blend: AUG-CC-PVTZ-RI
	 Reference Energy          =    -154.1449513148916992 [Eh]
	 Singles Energy            =      -0.0000000000000000 [Eh]
	 Same-Spin Energy          =      -0.1483754615802813 [Eh]
	 Opposite-Spin Energy      =      -0.5194231049539021 [Eh]
	 Correlation Energy        =      -0.6677985665341835 [Eh]
	 Total Energy              =    -154.8127498814258729 [Eh]
	 SCS Total Energy          =    -154.8177175280298172 [Eh]
                               Psi4 1.9.1 release
    Molecular point group: c1
  Multiplicity = 1
  Basis Set: AUG-CC-PVTZ
    Blend: AUG-CC-PVTZ
  Basis Set: (AUG-CC-PVTZ AUX)
    Blend: AUG-CC-PVTZ-JKFIT
  @DF-RHF Final Energy:  -154.14494559358906
    Total Energy =                       -154.1449455935890569
  Basis Set: (AUG-CC-PVTZ AUX)
	 Singles Energy            =      -0.0000000000000000 [Eh]
	 Same-Spin Energy          =      -0.1483592185539264 [Eh]
	 Opposite-Spin Energy      =      -0.5197056474095259 [Eh]
	 Correlation Energy        =      -0.6680648659634523 [Eh]
	 Total Energy              =    -154.8130104595525154 [Eh]
	 SCS Total Energy          =    -154.8180454433317834 [Eh]
                               Psi4 1.9.1 release
    Molecular point group: c1

    Geometry (in Bohr), charge = 0, multiplicity = 1:

       Center              X                  Y                   Z               Mass
    ------------   -----------------  -----------------  -----------------  -----------------
         C            4.352288710778     1.453382693911     1.131233522400    12.000000000000
         C            3.346774888052    -1.154596206489     0.579801990361    12.000000000000
         O            2.072963419213    -1.270699089911    -1.806563058129    15.994914619570
         H            3.250971442670    -0.769594744045    -3.097189310033     1.007825032230
         H            5.252323690359     1.489737245113     2.979211818294     1.007825032230
         H            2.819769955911     2.819153905194     1.113551355044     1.007825032230
         H            5.757139458335     2.004991860206    -0.267726948824     1.007825032230
         H            1.920923614063    -1.682833240064     1.957045728951     1.007825032230
         H            4.845671635695    -2.565741631770     0.634006894543     1.007825032230
         C           -3.514437059081    -2.053567270261     1.099909422144    12.000000000000
         C           -3.769822206580     0.313424305990    -0.479066359791    12.000000000000
         O           -1.480494594633     1.696611233245    -0.607996704153    15.994914619570
         H           -0.217190003051     0.589834546361    -1.333496578786     1.007825032230
         H           -5.310374187207    -3.050462052128     1.215963172687     1.007825032230
         H           -2.906572635758    -1.575612069432     3.003545821612     1.007825032230
         H           -2.129927323539    -3.325377519134     0.266491067938     1.007825032230
         H           -5.153169760556     1.583186091743     0.353906019050     1.007825032230
         H           -4.430967458011    -0.171071236959    -2.373821046469     1.007825032230

  Charge       = 0
  Multiplicity = 1
  Basis Set: AUG-CC-PVTZ
    Blend: AUG-CC-PVTZ
  Basis Set: (AUG-CC-PVTZ AUX)
    Blend: AUG-CC-PVTZ-JKFIT

    Orbital Energies [Eh]
    ---------------------

    Doubly Occupied:

       1A    -20.582878     2A    -20.509936     3A    -11.285316
       4A    -11.250189     5A    -11.218373     6A    -11.200029
       7A     -1.391830     8A     -1.322360     9A     -1.025977
      10A     -0.995913    11A     -0.861933    12A     -0.830635
      13A     -0.721992    14A     -0.663530    15A     -0.640578
      16A     -0.628614    17A     -0.599272    18A     -0.588916
      19A     -0.558362    20A     -0.535957    21A     -0.522400
      22A     -0.504185    23A     -0.498068    24A     -0.472440
      25A     -0.445899    26A     -0.413084

  @DF-RHF Final Energy:  -308.28587087990655

   => Energetics <=

    Nuclear Repulsion Energy =            267.1594789548279323
    One-Electron Energy =                -950.3533613346173752
    Two-Electron Energy =                 374.9080114998828890
    Total Energy =                       -308.2858708799065539
 Dipole X            :        -10.0213808           10.9271750            0.9057943
 Dipole Y            :          9.3530114           -9.8946306           -0.5416192
 Dipole Z            :          0.8215939           -0.8737187           -0.0521247
 Magnitude           :                                                    1.0566606
  Basis Set: (AUG-CC-PVTZ AUX)
    Blend: AUG-CC-PVTZ-RI
	 Reference Energy          =    -308.2858708799065539 [Eh]
	 Singles Energy            =      -0.0000000000000000 [Eh]
	 Same-Spin Energy          =      -0.3024745062161394 [Eh]
	 Opposite-Spin Energy      =      -1.0432806037404569 [Eh]
	 Correlation Energy        =      -1.3457551099565963 [Eh]
	 Total Energy              =    -309.6316259898631529 [Eh]

	 ================> DF-SCS-MP2 Energies <==================
	-----------------------------------------------------------
	 SCS Same-Spin Scale       =       0.3333333333333333 [-]
	 SCS Opposite-Spin Scale   =       1.2000000000000000 [-]
	 SCS Same-Spin Energy      =      -0.1008248354053798 [Eh]
	 SCS Opposite-Spin Energy  =      -1.2519367244885482 [Eh]
	 SCS Correlation Energy    =      -1.3527615598939280 [Eh]
	 SCS Total Energy          =    -309.6386324398004604 [Eh]
	-----------------------------------------------------------

*** Psi4 exiting successfully. Buy a developer a beer!
