                               Psi4 1.9.1 release

  ==> Input File <==

--------------------------------------------------------------------------
MEMORY 10 GB

molecule dimer {
0 1
C    2.355352   0.003156   0.000061
C    0.937302  -0.501955  -0.000075
O    0.072422   0.620392  -0.000014
H   -0.838375   0.302130   0.000003
H    3.056621  -0.827988   0.000404
H    2.535016   0.612763   0.881313
H    2.535301   0.612274  -0.881468
H    0.761942  -1.121834   0.881890
H    0.762030  -1.121711  -0.882147
--
0 1
O   -3.257202  -0.332988  -0.000002
H   -3.707908   0.043592  -0.759524
H   -3.707758   0.042804   0.759998

units ang
no_reorient
no_com
symmetry c1
}

set {
basis        aug-cc-pVTZ
scf_type     df
}

energy("mp2", bsse_type="cp")
--------------------------------------------------------------------------

                               Psi4 1.9.1 release
    Molecular point group: c1
  Charge       = 0
  Multiplicity = 1
  Basis Set: AUG-CC-PVTZ
    Blend: AUG-CC-PVTZ
  Basis Set: (AUG-CC-PVTZ AUX)
    Blend: AUG-CC-PVTZ-JKFIT
  @DF-RHF Final Energy:   -76.06048208084681
    Total Energy =                        -76.0604820808468105
 Dipole X            :         62.6566854          -63.2553355           -0.5986501
 Dipole Y            :          5.3698779           -4.8707842            0.4990936
 Dipole Z            :         -0.0005482            0.0008655            0.0003173
 Magnitude           :                                                    0.7794078
  Basis Set: (AUG-CC-PVTZ AUX)
    Blend: AUG-CC-PVTZ-RI
	 Reference Energy          =     -76.0604820808468105 [Eh]
	 Singles Energy            =      -0.0000000000000000 [Eh]
	 Same-Spin Energy          =      -0.0684302745918219 [Eh]
	 Opposite-Spin Energy      =      -0.2156346512877719 [Eh]
	 Correlation Energy        =      -0.2840649258795938 [Eh]
	 Total Energy              =     -76.3445470067264012 [Eh]
	 SCS Total Energy          =     -76.3420537539227411 [Eh]
                               Psi4 1.9.1 release
    Molecular point group: c1
  Multiplicity = 1
  Basis Set: AUG-CC-PVTZ
    Blend: AUG-CC-PVTZ
  Basis Set: (AUG-CC-PVTZ AUX)
    Blend: AUG-CC-PVTZ-JKFIT
  @DF-RHF Final Energy:  -154.14555811114749
    Total Energy =                       -154.1455581111474942
  Basis Set: (AUG-CC-PVTZ AUX)
	 Singles Energy            =      -0.0000000000000000 [Eh]
	 Same-Spin Energy          =      -0.1481329228884148 [Eh]
	 Opposite-Spin Energy      =      -0.5178264952197402 [Eh]
	 Correlation Energy        =      -0.6659594181081551 [Eh]
	 Total Energy              =    -154.8115175292556387 [Eh]
	 SCS Total Energy          =    -154.8163275463739978 [Eh]
                               Psi4 1.9.1 release
    Molecular point group: c1

    Geometry (in Bohr), charge = 0, multiplicity = 1:

       Center              X                  Y                   Z               Mass
    ------------   -----------------  -----------------  -----------------  -----------------
         C            4.450970209049     0.005963975652     0.000115273294    12.000000000000
         C            1.771244076844    -0.948557477304    -0.000141729459    12.000000000000
         O            0.136857745458     1.172370970425    -0.000026456166    15.994914619570
         H           -1.584299140431     0.570942954285     0.000005669178     1.007825032230
         H            5.776176559323    -1.564670555166     0.000763449355     1.007825032230
         H            4.790485963654     1.157954249814     1.665440200806     1.007825032230
         H            4.791024535599     1.157030173739    -1.665733108355     1.007825032230
         H            1.439861703484    -2.119959018227     1.666530572780     1.007825032230
         H            1.440027999383    -2.119726581913    -1.667016232394     1.007825032230
         O           -6.155219715293    -0.629256123064    -0.000003779452    15.994914619570
         H           -7.006930618394     0.082376941261    -1.435292345712     1.007825032230
         H           -7.006647159475     0.080887837074     1.436188075896     1.007825032230

  Charge       = 0
  Multiplicity = 1
  Basis Set: AUG-CC-PVTZ
    Blend: AUG-CC-PVTZ
  Basis Set: (AUG-CC-PVTZ AUX)
    Blend: AUG-CC-PVTZ-JKFIT

    Orbital Energies [Eh]
    ---------------------

    Doubly Occupied:

       1A    -20.583047     2A    -20.539460     3A    -11.260743
       4A    -11.201258     5A     -1.367960     6A     -1.343275
       7A     -1.004680     8A     -0.823766     9A     -0.731825
      10A     -0.687361    11A     -0.636081    12A     -0.601649
      13A     -0.560539    14A     -0.529645    15A     -0.522464
      16A     -0.516086    17A     -0.476541    18A     -0.428510

  @DF-RHF Final Energy:  -230.21063642176907

   => Energetics <=

    Nuclear Repulsion Energy =            123.3765366831963206
    One-Electron Energy =                -559.5445646425758923
    Two-Electron Energy =                 205.9573915376105049
    Total Energy =                       -230.2106364217690668
 Dipole X            :          7.2499022           -8.1739102           -0.9240080
 Dipole Y            :          3.8992039           -4.0658062           -0.1666023
 Dipole Z            :         -0.0001774            0.0004857            0.0003082
 Magnitude           :                                                    0.9389074
  Basis Set: (AUG-CC-PVTZ AUX)
    Blend: AUG-CC-PVTZ-RI
	 Reference Energy          =    -230.2106364217690668 [Eh]
	 Singles Energy            =      -0.0000000000000000 [Eh]
	 Same-Spin Energy          =      -0.2171071652089466 [Eh]
	 Opposite-Spin Energy      =      -0.7337036557893657 [Eh]
	 Correlation Energy        =      -0.9508108209983123 [Eh]
	 Total Energy              =    -231.1614472427673661 [Eh]

	 ================> DF-SCS-MP2 Energies <==================
	-----------------------------------------------------------
	 SCS Same-Spin Scale       =       0.3333333333333333 [-]
	 SCS Opposite-Spin Scale   =       1.2000000000000000 [-]
	 SCS Same-Spin Energy      =      -0.0723690550696489 [Eh]
	 SCS Opposite-Spin Energy  =      -0.8804443869472388 [Eh]
	 SCS Correlation Energy    =      -0.9528134420168877 [Eh]
	 SCS Total Energy          =    -231.1634498637859565 [Eh]
	-----------------------------------------------------------

*** Psi4 exiting successfully. Buy a developer a beer!
