                               Psi4 1.9.1 release

  ==> Input File <==

--------------------------------------------------------------------------
MEMORY 10 GB

molecule dimer {
0 1
C    2.355352   0.003156   0.000061
C    0.937302  -0.501955  -0.000075
O    0.072422   0.620392  -0.000014
H   -0.838375   0.302130   0.000003
H    3.056621  -0.827988   0.000404
H    2.535016   0.612763   0.881313
H    2.535301   0.612274  -0.881468
H    0.761942  -1.121834   0.881890
H    0.762030  -1.121711  -0.882147
--
0 1
O   -2.563531  -0.134367  -0.000005
H   -3.014237   0.242213  -0.759526
H   -3.014087   0.241425   0.759996

units ang
no_reorient
no_com
symmetry c1
}

set {
basis        aug-cc-pVTZ
scf_type     df
}

energy("mp2", bsse_type="cp")
--------------------------------------------------------------------------

                               Psi4 1.9.1 release
    Molecular point group: c1
  Charge       = 0
  Multiplicity = 1
  Basis Set: AUG-CC-PVTZ
    Blend: AUG-CC-PVTZ
  Basis Set: (AUG-CC-PVTZ AUX)
    Blend: AUG-CC-PVTZ-JKFIT
  @DF-RHF Final Energy:   -76.06052598117775
    Total Energy =                        -76.0605259811777472
 Dipole X            :         49.5485753          -50.1468534           -0.5982781
 Dipole Y            :          1.6164304           -1.1173913            0.4990391
 Dipole Z            :         -0.0004943            0.0008126            0.0003183
 Magnitude           :                                                    0.7790872
  Basis Set: (AUG-CC-PVTZ AUX)
    Blend: AUG-CC-PVTZ-RI
	 Reference Energy          =     -76.0605259811777472 [Eh]
	 Singles Energy            =      -0.0000000000000000 [Eh]
	 Same-Spin Energy          =      -0.0684727520145355 [Eh]
	 Opposite-Spin Energy      =      -0.2162331448124479 [Eh]
	 Correlation Energy        =      -0.2847058968269834 [Eh]
	 Total Energy              =     -76.3452318780047250 [Eh]
	 SCS Total Energy          =     -76.3428300056241937 [Eh]
                               Psi4 1.9.1 release
    Molecular point group: c1
  Multiplicity = 1
  Basis Set: AUG-CC-PVTZ
    Blend: AUG-CC-PVTZ
  Basis Set: (AUG-CC-PVTZ AUX)
    Blend: AUG-CC-PVTZ-JKFIT
  @DF-RHF Final Energy:  -154.14559519171627
    Total Energy =                       -154.1455951917162679
  Basis Set: (AUG-CC-PVTZ AUX)
	 Singles Energy            =      -0.0000000000000000 [Eh]
	 Same-Spin Energy          =      -0.1481684318320972 [Eh]
	 Opposite-Spin Energy      =      -0.5181826788686806 [Eh]
	 Correlation Energy        =      -0.6663511107007778 [Eh]
	 Total Energy              =    -154.8119463024170557 [Eh]
	 SCS Total Energy          =    -154.8168038836360552 [Eh]
                               Psi4 1.9.1 release
    Molecular point group: c1

    Geometry (in Bohr), charge = 0, multiplicity = 1:

       Center              X                  Y                   Z               Mass
    ------------   -----------------  -----------------  -----------------  -----------------
         C            4.450970209049     0.005963975652     0.000115273294    12.000000000000
         C            1.771244076844    -0.948557477304    -0.000141729459    12.000000000000
         O            0.136857745458     1.172370970425    -0.000026456166    15.994914619570
         H           -1.584299140431     0.570942954285     0.000005669178     1.007825032230
         H            5.776176559323    -1.564670555166     0.000763449355     1.007825032230
         H            4.790485963654     1.157954249814     1.665440200806     1.007825032230
         H            4.791024535599     1.157030173739    -1.665733108355     1.007825032230
         H            1.439861703484    -2.119959018227     1.666530572780     1.007825032230
         H            1.440027999383    -2.119726581913    -1.667016232394     1.007825032230
         O           -4.844371504121    -0.253916830299    -0.000009448631    15.994914619570
         H           -5.696082407222     0.457716234026    -1.435296125164     1.007825032230
         H           -5.695798948303     0.456227129839     1.436184296443     1.007825032230

  Charge       = 0
  Multiplicity = 1
  Basis Set: AUG-CC-PVTZ
    Blend: AUG-CC-PVTZ
  Basis Set: (AUG-CC-PVTZ AUX)
    Blend: AUG-CC-PVTZ-JKFIT

    Orbital Energies [Eh]
    ---------------------

    Doubly Occupied:

       1A    -20.595990     2A    -20.520083     3A    -11.252615
       4A    -11.195458     5A     -1.385901     6A     -1.328462
       7A     -0.997613     8A     -0.816428     9A     -0.746698
      10A     -0.690113    11A     -0.627569    12A     -0.614592
      13A     -0.551079    14A     -0.545737    15A     -0.512511
      16A     -0.508160    17A     -0.463645    18A     -0.416602

  @DF-RHF Final Energy:  -230.20958524666028

   => Energetics <=

    Nuclear Repulsion Energy =            130.1009087804085311
    One-Electron Energy =                -573.0824732080665171
    Two-Electron Energy =                 212.7719791809977039
    Total Energy =                       -230.2095852466602821
 Dipole X            :         -6.0589795            4.9345719           -1.1244076
 Dipole Y            :          0.1450143           -0.3124133           -0.1673990
 Dipole Z            :         -0.0001225            0.0004327            0.0003102
 Magnitude           :                                                    1.1368003
  Basis Set: (AUG-CC-PVTZ AUX)
    Blend: AUG-CC-PVTZ-RI
	 Reference Energy          =    -230.2095852466602821 [Eh]
	 Singles Energy            =      -0.0000000000000000 [Eh]
	 Same-Spin Energy          =      -0.2187563237107470 [Eh]
	 Opposite-Spin Energy      =      -0.7354862519424876 [Eh]
	 Correlation Energy        =      -0.9542425756532347 [Eh]
	 Total Energy              =    -231.1638278223135217 [Eh]

	 ================> DF-SCS-MP2 Energies <==================
	-----------------------------------------------------------
	 SCS Same-Spin Scale       =       0.3333333333333333 [-]
	 SCS Opposite-Spin Scale   =       1.2000000000000000 [-]
	 SCS Same-Spin Energy      =      -0.0729187745702490 [Eh]
	 SCS Opposite-Spin Energy  =      -0.8825835023309851 [Eh]
	 SCS Correlation Energy    =      -0.9555022769012341 [Eh]
	 SCS Total Energy          =    -231.1650875235615104 [Eh]
	-----------------------------------------------------------

*** Psi4 exiting successfully. Buy a developer a beer!
