                               Psi4 1.9.1 release

  ==> Input File <==

--------------------------------------------------------------------------
MEMORY 10 GB

molecule dimer {
0 1
C    2.355352   0.003156   0.000061
C    0.937302  -0.501955  -0.000075
O    0.072422   0.620392  -0.000014
H   -0.838375   0.302130   0.000003
H    3.056621  -0.827988   0.000404
H    2.535016   0.612763   0.881313
H    2.535301   0.612274  -0.881468
H    0.761942  -1.121834   0.881890
H    0.762030  -1.121711  -0.882147
--
0 1
O   -2.979734  -0.253539  -0.000003
H   -3.430440   0.123041  -0.759525
H   -3.430290   0.122253   0.759997

units ang
no_reorient
no_com
symmetry c1
}

set {
basis        aug-cc-pVTZ
scf_type     df
}

energy("mp2", bsse_type="cp")
--------------------------------------------------------------------------

                               Psi4 1.9.1 release
    Molecular point group: c1
  Charge       = 0
  Multiplicity = 1
  Basis Set: AUG-CC-PVTZ
    Blend: AUG-CC-PVTZ
  Basis Set: (AUG-CC-PVTZ AUX)
    Blend: AUG-CC-PVTZ-JKFIT
  @DF-RHF Final Energy:   -76.06048727405303
    Total Energy =                        -76.0604872740530311
 Dipole X            :         57.4135093          -58.0119502           -0.5984409
 Dipole Y            :          3.8683883           -3.3694157            0.4989726
 Dipole Z            :         -0.0005294            0.0008466            0.0003172
 Magnitude           :                                                    0.7791696
  Basis Set: (AUG-CC-PVTZ AUX)
    Blend: AUG-CC-PVTZ-RI
	 Reference Energy          =     -76.0604872740530311 [Eh]
	 Singles Energy            =      -0.0000000000000000 [Eh]
	 Same-Spin Energy          =      -0.0684482708527772 [Eh]
	 Opposite-Spin Energy      =      -0.2158319193047368 [Eh]
	 Correlation Energy        =      -0.2842801901575139 [Eh]
	 Total Energy              =     -76.3447674642105483 [Eh]
	 SCS Total Energy          =     -76.3423016675029800 [Eh]
                               Psi4 1.9.1 release
    Molecular point group: c1
  Multiplicity = 1
  Basis Set: AUG-CC-PVTZ
    Blend: AUG-CC-PVTZ
  Basis Set: (AUG-CC-PVTZ AUX)
    Blend: AUG-CC-PVTZ-JKFIT
  @DF-RHF Final Energy:  -154.14557018681228
    Total Energy =                       -154.1455701868122787
  Basis Set: (AUG-CC-PVTZ AUX)
	 Singles Energy            =      -0.0000000000000000 [Eh]
	 Same-Spin Energy          =      -0.1481446103152209 [Eh]
	 Opposite-Spin Energy      =      -0.5179732058853831 [Eh]
	 Correlation Energy        =      -0.6661178162006041 [Eh]
	 Total Energy              =    -154.8116880030128755 [Eh]
	 SCS Total Energy          =    -154.8165195706464772 [Eh]
                               Psi4 1.9.1 release
    Molecular point group: c1

    Geometry (in Bohr), charge = 0, multiplicity = 1:

       Center              X                  Y                   Z               Mass
    ------------   -----------------  -----------------  -----------------  -----------------
         C            4.450970209049     0.005963975652     0.000115273294    12.000000000000
         C            1.771244076844    -0.948557477304    -0.000141729459    12.000000000000
         O            0.136857745458     1.172370970425    -0.000026456166    15.994914619570
         H           -1.584299140431     0.570942954285     0.000005669178     1.007825032230
         H            5.776176559323    -1.564670555166     0.000763449355     1.007825032230
         H            4.790485963654     1.157954249814     1.665440200806     1.007825032230
         H            4.791024535599     1.157030173739    -1.665733108355     1.007825032230
         H            1.439861703484    -2.119959018227     1.666530572780     1.007825032230
         H            1.440027999383    -2.119726581913    -1.667016232394     1.007825032230
         O           -5.630881186715    -0.479119272122    -0.000005669178    15.994914619570
         H           -6.482592089816     0.232513792202    -1.435294235438     1.007825032230
         H           -6.482308630897     0.231024688016     1.436186186170     1.007825032230

  Charge       = 0
  Multiplicity = 1
  Basis Set: AUG-CC-PVTZ
    Blend: AUG-CC-PVTZ
  Basis Set: (AUG-CC-PVTZ AUX)
    Blend: AUG-CC-PVTZ-JKFIT

    Orbital Energies [Eh]
    ---------------------

    Doubly Occupied:

       1A    -20.587036     2A    -20.534346     3A    -11.258333
       4A    -11.199555     5A     -1.372731     6A     -1.339086
       7A     -1.002549     8A     -0.821495     9A     -0.736074
      10A     -0.685794    11A     -0.633568    12A     -0.606419
      13A     -0.557424    14A     -0.534681    15A     -0.520098
      16A     -0.513786    17A     -0.473183    18A     -0.425149

  @DF-RHF Final Energy:  -230.21149132360972

   => Energetics <=

    Nuclear Repulsion Energy =            125.7496199520722513
    One-Electron Energy =                -564.3196055505295590
    Two-Electron Energy =                 208.3584942748476010
    Total Energy =                       -230.2114913236097209
 Dipole X            :          1.9509558           -2.9305249           -0.9795691
 Dipole Y            :          2.3965829           -2.5644377           -0.1678548
 Dipole Z            :         -0.0001587            0.0004668            0.0003080
 Magnitude           :                                                    0.9938466
  Basis Set: (AUG-CC-PVTZ AUX)
    Blend: AUG-CC-PVTZ-RI
	 Reference Energy          =    -230.2114913236097209 [Eh]
	 Singles Energy            =      -0.0000000000000000 [Eh]
	 Same-Spin Energy          =      -0.2175212858604673 [Eh]
	 Opposite-Spin Energy      =      -0.7342631135075287 [Eh]
	 Correlation Energy        =      -0.9517843993679960 [Eh]
	 Total Energy              =    -231.1632757229777155 [Eh]

	 ================> DF-SCS-MP2 Energies <==================
	-----------------------------------------------------------
	 SCS Same-Spin Scale       =       0.3333333333333333 [-]
	 SCS Opposite-Spin Scale   =       1.2000000000000000 [-]
	 SCS Same-Spin Energy      =      -0.0725070952868224 [Eh]
	 SCS Opposite-Spin Energy  =      -0.8811157362090344 [Eh]
	 SCS Correlation Energy    =      -0.9536228314958568 [Eh]
	 SCS Total Energy          =    -231.1651141551055844 [Eh]
	-----------------------------------------------------------

*** Psi4 exiting successfully. Buy a developer a beer!
