                               Psi4 1.9.1 release

  ==> Input File <==

--------------------------------------------------------------------------
MEMORY 10 GB

molecule dimer {
0 1
C    2.355352   0.003156   0.000061
C    0.937302  -0.501955  -0.000075
O    0.072422   0.620392  -0.000014
H   -0.838375   0.302130   0.000003
H    3.056621  -0.827988   0.000404
H    2.535016   0.612763   0.881313
H    2.535301   0.612274  -0.881468
H    0.761942  -1.121834   0.881890
H    0.762030  -1.121711  -0.882147
--
0 1
O   -2.424796  -0.094643  -0.000005
H   -2.875502   0.281937  -0.759527
H   -2.875352   0.281149   0.759995

units ang
no_reorient
no_com
symmetry c1
}

set {
basis        aug-cc-pVTZ
scf_type     df
}

energy("mp2", bsse_type="cp")
--------------------------------------------------------------------------

                               Psi4 1.9.1 release
    Molecular point group: c1
  Charge       = 0
  Multiplicity = 1
  Basis Set: AUG-CC-PVTZ
    Blend: AUG-CC-PVTZ
  Basis Set: (AUG-CC-PVTZ AUX)
    Blend: AUG-CC-PVTZ-JKFIT
  @DF-RHF Final Energy:   -76.06055073243442
    Total Energy =                        -76.0605507324344217
 Dipole X            :         46.9268569          -47.5251418           -0.5982850
 Dipole Y            :          0.8658265           -0.3667165            0.4991101
 Dipole Z            :         -0.0004915            0.0008088            0.0003173
 Magnitude           :                                                    0.7791379
  Basis Set: (AUG-CC-PVTZ AUX)
    Blend: AUG-CC-PVTZ-RI
	 Reference Energy          =     -76.0605507324344217 [Eh]
	 Singles Energy            =      -0.0000000000000000 [Eh]
	 Same-Spin Energy          =      -0.0684902035160380 [Eh]
	 Opposite-Spin Energy      =      -0.2163937720540722 [Eh]
	 Correlation Energy        =      -0.2848839755701102 [Eh]
	 Total Energy              =     -76.3454347080045324 [Eh]
	 SCS Total Energy          =     -76.3430533267379872 [Eh]
                               Psi4 1.9.1 release
    Molecular point group: c1
  Multiplicity = 1
  Basis Set: AUG-CC-PVTZ
    Blend: AUG-CC-PVTZ
  Basis Set: (AUG-CC-PVTZ AUX)
    Blend: AUG-CC-PVTZ-JKFIT
  @DF-RHF Final Energy:  -154.14561143654649
    Total Energy =                       -154.1456114365464884
  Basis Set: (AUG-CC-PVTZ AUX)
	 Singles Energy            =      -0.0000000000000000 [Eh]
	 Same-Spin Energy          =      -0.1481804838297434 [Eh]
	 Opposite-Spin Energy      =      -0.5182962086614210 [Eh]
	 Correlation Energy        =      -0.6664766924911645 [Eh]
	 Total Energy              =    -154.8120881290376474 [Eh]
	 SCS Total Energy          =    -154.8169603815501034 [Eh]
                               Psi4 1.9.1 release
    Molecular point group: c1

    Geometry (in Bohr), charge = 0, multiplicity = 1:

       Center              X                  Y                   Z               Mass
    ------------   -----------------  -----------------  -----------------  -----------------
         C            4.450970209049     0.005963975652     0.000115273294    12.000000000000
         C            1.771244076844    -0.948557477304    -0.000141729459    12.000000000000
         O            0.136857745458     1.172370970425    -0.000026456166    15.994914619570
         H           -1.584299140431     0.570942954285     0.000005669178     1.007825032230
         H            5.776176559323    -1.564670555166     0.000763449355     1.007825032230
         H            4.790485963654     1.157954249814     1.665440200806     1.007825032230
         H            4.791024535599     1.157030173739    -1.665733108355     1.007825032230
         H            1.439861703484    -2.119959018227     1.666530572780     1.007825032230
         H            1.440027999383    -2.119726581913    -1.667016232394     1.007825032230
         O           -4.582200350106    -0.178849349692    -0.000009448631    15.994914619570
         H           -5.433911253206     0.532783714633    -1.435298014891     1.007825032230
         H           -5.433627794287     0.531294610446     1.436182406717     1.007825032230

  Charge       = 0
  Multiplicity = 1
  Basis Set: AUG-CC-PVTZ
    Blend: AUG-CC-PVTZ
  Basis Set: (AUG-CC-PVTZ AUX)
    Blend: AUG-CC-PVTZ-JKFIT

    Orbital Energies [Eh]
    ---------------------

    Doubly Occupied:

       1A    -20.600181     2A    -20.512213     3A    -11.249825
       4A    -11.193440     5A     -1.393528     6A     -1.323044
       7A     -0.995305     8A     -0.814213     9A     -0.752230
      10A     -0.697147    11A     -0.624650    12A     -0.616359
      13A     -0.553984    14A     -0.544236    15A     -0.508400
      16A     -0.505379    17A     -0.458192    18A     -0.412210

  @DF-RHF Final Energy:  -230.20606536609182

   => Energetics <=

    Nuclear Repulsion Energy =            131.8278238080494305
    One-Electron Energy =                -576.5587001613446319
    Two-Electron Energy =                 214.5248109872034092
    Total Energy =                       -230.2060653660918206
 Dipole X            :         -8.7554771            7.5562835           -1.1991937
 Dipole Y            :         -0.6041768            0.4382615           -0.1659153
 Dipole Z            :         -0.0001187            0.0004290            0.0003103
 Magnitude           :                                                    1.2106170
  Basis Set: (AUG-CC-PVTZ AUX)
    Blend: AUG-CC-PVTZ-RI
	 Reference Energy          =    -230.2060653660918206 [Eh]
	 Singles Energy            =      -0.0000000000000000 [Eh]
	 Same-Spin Energy          =      -0.2194497655342701 [Eh]
	 Opposite-Spin Energy      =      -0.7360741631878248 [Eh]
	 Correlation Energy        =      -0.9555239287220949 [Eh]
	 Total Energy              =    -231.1615892948139219 [Eh]

	 ================> DF-SCS-MP2 Energies <==================
	-----------------------------------------------------------
	 SCS Same-Spin Scale       =       0.3333333333333333 [-]
	 SCS Opposite-Spin Scale   =       1.2000000000000000 [-]
	 SCS Same-Spin Energy      =      -0.0731499218447567 [Eh]
	 SCS Opposite-Spin Energy  =      -0.8832889958253898 [Eh]
	 SCS Correlation Energy    =      -0.9564389176701464 [Eh]
	 SCS Total Energy          =    -231.1625042837619617 [Eh]
	-----------------------------------------------------------

*** Psi4 exiting successfully. Buy a developer a beer!
