                               Psi4 1.9.1 release

  ==> Input File <==

--------------------------------------------------------------------------
MEMORY 10 GB

molecule dimer {
0 1
C    2.355352   0.003156   0.000061
C    0.937302  -0.501955  -0.000075
O    0.072422   0.620392  -0.000014
H   -0.838375   0.302130   0.000003
H    3.056621  -0.827988   0.000404
H    2.535016   0.612763   0.881313
H    2.535301   0.612274  -0.881468
H    0.761942  -1.121834   0.881890
H    0.762030  -1.121711  -0.882147
--
0 1
O   -2.840999  -0.213815  -0.000003
H   -3.291705   0.162765  -0.759526
H   -3.291555   0.161977   0.759996

units ang
no_reorient
no_com
symmetry c1
}

set {
basis        aug-cc-pVTZ
scf_type     df
}

energy("mp2", bsse_type="cp")
--------------------------------------------------------------------------

                               Psi4 1.9.1 release
    Molecular point group: c1
  Charge       = 0
  Multiplicity = 1
  Basis Set: AUG-CC-PVTZ
    Blend: AUG-CC-PVTZ
  Basis Set: (AUG-CC-PVTZ AUX)
    Blend: AUG-CC-PVTZ-JKFIT
  @DF-RHF Final Energy:   -76.06049098314389
    Total Energy =                        -76.0604909831438931
 Dipole X            :         54.7918848          -55.3902387           -0.5983539
 Dipole Y            :          3.1177031           -2.6187409            0.4989622
 Dipole Z            :         -0.0005267            0.0008428            0.0003161
 Magnitude           :                                                    0.7790961
  Basis Set: (AUG-CC-PVTZ AUX)
    Blend: AUG-CC-PVTZ-RI
	 Reference Energy          =     -76.0604909831438931 [Eh]
	 Singles Energy            =      -0.0000000000000000 [Eh]
	 Same-Spin Energy          =      -0.0684546279012300 [Eh]
	 Opposite-Spin Energy      =      -0.2159621254010460 [Eh]
	 Correlation Energy        =      -0.2844167533022760 [Eh]
	 Total Energy              =     -76.3449077364461743 [Eh]
	 SCS Total Energy          =     -76.3424637429255597 [Eh]
                               Psi4 1.9.1 release
    Molecular point group: c1
  Multiplicity = 1
  Basis Set: AUG-CC-PVTZ
    Blend: AUG-CC-PVTZ
  Basis Set: (AUG-CC-PVTZ AUX)
    Blend: AUG-CC-PVTZ-JKFIT
  @DF-RHF Final Energy:  -154.14557510775930
    Total Energy =                       -154.1455751077592993
  Basis Set: (AUG-CC-PVTZ AUX)
	 Singles Energy            =      -0.0000000000000000 [Eh]
	 Same-Spin Energy          =      -0.1481509932055372 [Eh]
	 Opposite-Spin Energy      =      -0.5180372823692313 [Eh]
	 Correlation Energy        =      -0.6661882755747685 [Eh]
	 Total Energy              =    -154.8117633833340676 [Eh]
	 SCS Total Energy          =    -154.8166035110042174 [Eh]
                               Psi4 1.9.1 release
    Molecular point group: c1

    Geometry (in Bohr), charge = 0, multiplicity = 1:

       Center              X                  Y                   Z               Mass
    ------------   -----------------  -----------------  -----------------  -----------------
         C            4.450970209049     0.005963975652     0.000115273294    12.000000000000
         C            1.771244076844    -0.948557477304    -0.000141729459    12.000000000000
         O            0.136857745458     1.172370970425    -0.000026456166    15.994914619570
         H           -1.584299140431     0.570942954285     0.000005669178     1.007825032230
         H            5.776176559323    -1.564670555166     0.000763449355     1.007825032230
         H            4.790485963654     1.157954249814     1.665440200806     1.007825032230
         H            4.791024535599     1.157030173739    -1.665733108355     1.007825032230
         H            1.439861703484    -2.119959018227     1.666530572780     1.007825032230
         H            1.440027999383    -2.119726581913    -1.667016232394     1.007825032230
         O           -5.368710032700    -0.404051791515    -0.000005669178    15.994914619570
         H           -6.220420935800     0.307581272810    -1.435296125164     1.007825032230
         H           -6.220137476881     0.306092168623     1.436184296443     1.007825032230

  Charge       = 0
  Multiplicity = 1
  Basis Set: AUG-CC-PVTZ
    Blend: AUG-CC-PVTZ
  Basis Set: (AUG-CC-PVTZ AUX)
    Blend: AUG-CC-PVTZ-JKFIT

    Orbital Energies [Eh]
    ---------------------

    Doubly Occupied:

       1A    -20.589544     2A    -20.530739     3A    -11.256776
       4A    -11.198446     5A     -1.376036     6A     -1.336274
       7A     -1.001183     8A     -0.820061     9A     -0.738888
      10A     -0.685694    11A     -0.631936    12A     -0.609212
      13A     -0.555378    14A     -0.538148    15A     -0.518190
      16A     -0.512271    17A     -0.470802    18A     -0.422893

  @DF-RHF Final Energy:  -230.21158535525743

   => Energetics <=

    Nuclear Repulsion Energy =            127.0805583071885536
    One-Electron Energy =                -566.9993415928115610
    Two-Electron Energy =                 209.7071979303655951
    Total Energy =                       -230.2115853552574265
 Dipole X            :         -0.7087093           -0.3088134           -1.0175227
 Dipole Y            :          1.6456183           -1.8137629           -0.1681447
 Dipole Z            :         -0.0001559            0.0004630            0.0003071
 Magnitude           :                                                    1.0313220
  Basis Set: (AUG-CC-PVTZ AUX)
    Blend: AUG-CC-PVTZ-RI
	 Reference Energy          =    -230.2115853552574265 [Eh]
	 Singles Energy            =      -0.0000000000000000 [Eh]
	 Same-Spin Energy          =      -0.2178250993008611 [Eh]
	 Opposite-Spin Energy      =      -0.7346145875137025 [Eh]
	 Correlation Energy        =      -0.9524396868145636 [Eh]
	 Total Energy              =    -231.1640250420719838 [Eh]

	 ================> DF-SCS-MP2 Energies <==================
	-----------------------------------------------------------
	 SCS Same-Spin Scale       =       0.3333333333333333 [-]
	 SCS Opposite-Spin Scale   =       1.2000000000000000 [-]
	 SCS Same-Spin Energy      =      -0.0726083664336204 [Eh]
	 SCS Opposite-Spin Energy  =      -0.8815375050164429 [Eh]
	 SCS Correlation Energy    =      -0.9541458714500632 [Eh]
	 SCS Total Energy          =    -231.1657312267074929 [Eh]
	-----------------------------------------------------------

*** Psi4 exiting successfully. Buy a developer a beer!
