                               Psi4 1.9.1 release

  ==> Input File <==

--------------------------------------------------------------------------
MEMORY 10 GB

molecule dimer {
0 1
C    2.355352   0.003156   0.000061
C    0.937302  -0.501955  -0.000075
O    0.072422   0.620392  -0.000014
H   -0.838375   0.302130   0.000003
H    3.056621  -0.827988   0.000404
H    2.535016   0.612763   0.881313
H    2.535301   0.612274  -0.881468
H    0.761942  -1.121834   0.881890
H    0.762030  -1.121711  -0.882147
--
0 1
O   -2.147328  -0.015194  -0.000006
H   -2.598034   0.361386  -0.759528
H   -2.597884   0.360598   0.759994

units ang
no_reorient
no_com
symmetry c1
}

set {
basis        aug-cc-pVTZ
scf_type     df
}

energy("mp2", bsse_type="cp")
--------------------------------------------------------------------------

                               Psi4 1.9.1 release
    Molecular point group: c1
  Charge       = 0
  Multiplicity = 1
  Basis Set: AUG-CC-PVTZ
    Blend: AUG-CC-PVTZ
  Basis Set: (AUG-CC-PVTZ AUX)
    Blend: AUG-CC-PVTZ-JKFIT
  @DF-RHF Final Energy:   -76.06059414758656
    Total Energy =                        -76.0605941475865563
 Dipole X            :         41.6834813          -42.2817566           -0.5982753
 Dipole Y            :         -0.6353883            1.1346520            0.4992637
 Dipole Z            :         -0.0004726            0.0007899            0.0003174
 Magnitude           :                                                    0.7792289
  Basis Set: (AUG-CC-PVTZ AUX)
    Blend: AUG-CC-PVTZ-RI
	 Reference Energy          =     -76.0605941475865563 [Eh]
	 Singles Energy            =      -0.0000000000000000 [Eh]
	 Same-Spin Energy          =      -0.0685744912775679 [Eh]
	 Opposite-Spin Energy      =      -0.2170022841688857 [Eh]
	 Correlation Energy        =      -0.2855767754464536 [Eh]
	 Total Energy              =     -76.3461709230330143 [Eh]
	 SCS Total Energy          =     -76.3438550523484025 [Eh]
                               Psi4 1.9.1 release
    Molecular point group: c1
  Multiplicity = 1
  Basis Set: AUG-CC-PVTZ
    Blend: AUG-CC-PVTZ
  Basis Set: (AUG-CC-PVTZ AUX)
    Blend: AUG-CC-PVTZ-JKFIT
  @DF-RHF Final Energy:  -154.14564963907105
    Total Energy =                       -154.1456496390710527
  Basis Set: (AUG-CC-PVTZ AUX)
	 Singles Energy            =      -0.0000000000000000 [Eh]
	 Same-Spin Energy          =      -0.1482105863407168 [Eh]
	 Opposite-Spin Energy      =      -0.5186161296386300 [Eh]
	 Correlation Energy        =      -0.6668267159793468 [Eh]
	 Total Energy              =    -154.8124763550503928 [Eh]
	 SCS Total Energy          =    -154.8173925234176522 [Eh]
                               Psi4 1.9.1 release
    Molecular point group: c1

    Geometry (in Bohr), charge = 0, multiplicity = 1:

       Center              X                  Y                   Z               Mass
    ------------   -----------------  -----------------  -----------------  -----------------
         C            4.450970209049     0.005963975652     0.000115273294    12.000000000000
         C            1.771244076844    -0.948557477304    -0.000141729459    12.000000000000
         O            0.136857745458     1.172370970425    -0.000026456166    15.994914619570
         H           -1.584299140431     0.570942954285     0.000005669178     1.007825032230
         H            5.776176559323    -1.564670555166     0.000763449355     1.007825032230
         H            4.790485963654     1.157954249814     1.665440200806     1.007825032230
         H            4.791024535599     1.157030173739    -1.665733108355     1.007825032230
         H            1.439861703484    -2.119959018227     1.666530572780     1.007825032230
         H            1.440027999383    -2.119726581913    -1.667016232394     1.007825032230
         O           -4.057861821527    -0.028712498750    -0.000011338357    15.994914619570
         H           -4.909572724628     0.682920565575    -1.435299904617     1.007825032230
         H           -4.909289265709     0.681431461388     1.436180516991     1.007825032230

  Charge       = 0
  Multiplicity = 1
  Basis Set: AUG-CC-PVTZ
    Blend: AUG-CC-PVTZ
  Basis Set: (AUG-CC-PVTZ AUX)
    Blend: AUG-CC-PVTZ-JKFIT

    Orbital Energies [Eh]
    ---------------------

    Doubly Occupied:

       1A    -20.611408     2A    -20.488509     3A    -11.242273
       4A    -11.187920     5A     -1.419357     6A     -1.307915
       7A     -0.989550     8A     -0.809921     9A     -0.768647
      10A     -0.727877    11A     -0.619262    12A     -0.616836
      13A     -0.562937    14A     -0.533712    15A     -0.497868
      16A     -0.496445    17A     -0.440554    18A     -0.399801

  @DF-RHF Final Energy:  -230.18572509609686

   => Energetics <=

    Nuclear Repulsion Energy =            135.8473125386062748
    One-Electron Energy =                -584.6244935376673766
    Two-Electron Energy =                 218.5914559029642419
    Total Energy =                       -230.1857250960968599
 Dipole X            :        -14.2088494           12.7996687           -1.4091807
 Dipole Y            :         -2.0984198            1.9396300           -0.1587898
 Dipole Z            :         -0.0000958            0.0004101            0.0003143
 Magnitude           :                                                    1.4180989
  Basis Set: (AUG-CC-PVTZ AUX)
    Blend: AUG-CC-PVTZ-RI
	 Reference Energy          =    -230.1857250960968599 [Eh]
	 Singles Energy            =      -0.0000000000000000 [Eh]
	 Same-Spin Energy          =      -0.2214564020230242 [Eh]
	 Opposite-Spin Energy      =      -0.7377621072739119 [Eh]
	 Correlation Energy        =      -0.9592185092969361 [Eh]
	 Total Energy              =    -231.1449436053937916 [Eh]

	 ================> DF-SCS-MP2 Energies <==================
	-----------------------------------------------------------
	 SCS Same-Spin Scale       =       0.3333333333333333 [-]
	 SCS Opposite-Spin Scale   =       1.2000000000000000 [-]
	 SCS Same-Spin Energy      =      -0.0738188006743414 [Eh]
	 SCS Opposite-Spin Energy  =      -0.8853145287286942 [Eh]
	 SCS Correlation Energy    =      -0.9591333294030356 [Eh]
	 SCS Total Energy          =    -231.1448584254999048 [Eh]
	-----------------------------------------------------------

*** Psi4 exiting successfully. Buy a developer a beer!
