                               Psi4 1.9.1 release

  ==> Input File <==

--------------------------------------------------------------------------
MEMORY 10 GB

molecule dimer {
0 1
C    1.194805   1.105056   0.217010
C    1.098581  -0.235452  -0.466153
O    0.230083  -1.136243   0.231245
H    0.554363  -1.221565   1.132406
H    0.209866   1.553945   0.306714
H    1.627020   1.001440   1.211082
H    1.834187   1.772416  -0.356643
H    0.656104  -0.131699  -1.451625
H    2.081430  -0.691441  -0.581209
--
0 1
O   -1.884492   0.216587  -0.020243
H   -2.654243  -0.302475  -0.257744
H   -1.178064  -0.432175   0.116102

units ang
no_reorient
no_com
symmetry c1
}

set {
basis        aug-cc-pVTZ
scf_type     df
}

energy("mp2", bsse_type="cp")
--------------------------------------------------------------------------

                               Psi4 1.9.1 release
    Molecular point group: c1
  Charge       = 0
  Multiplicity = 1
  Basis Set: AUG-CC-PVTZ
    Blend: AUG-CC-PVTZ
  Basis Set: (AUG-CC-PVTZ AUX)
    Blend: AUG-CC-PVTZ-JKFIT
  @DF-RHF Final Energy:   -76.06020835114134
    Total Energy =                        -76.0602083511413412
 Dipole X            :         35.6878441          -35.7314008           -0.0435567
 Dipole Y            :         -2.6610739            1.8860336           -0.7750403
 Dipole Z            :          0.5063719           -0.5736944           -0.0673224
 Magnitude           :                                                    0.7791771
  Basis Set: (AUG-CC-PVTZ AUX)
    Blend: AUG-CC-PVTZ-RI
	 Reference Energy          =     -76.0602083511413412 [Eh]
	 Singles Energy            =      -0.0000000000000000 [Eh]
	 Same-Spin Energy          =      -0.0685398581565947 [Eh]
	 Opposite-Spin Energy      =      -0.2166408932310977 [Eh]
	 Correlation Energy        =      -0.2851807513876924 [Eh]
	 Total Energy              =     -76.3453891025290403 [Eh]
	 SCS Total Energy          =     -76.3430240424041955 [Eh]
                               Psi4 1.9.1 release
    Molecular point group: c1
  Multiplicity = 1
  Basis Set: AUG-CC-PVTZ
    Blend: AUG-CC-PVTZ
  Basis Set: (AUG-CC-PVTZ AUX)
    Blend: AUG-CC-PVTZ-JKFIT
  @DF-RHF Final Energy:  -154.14492766952517
    Total Energy =                       -154.1449276695251740
  Basis Set: (AUG-CC-PVTZ AUX)
	 Singles Energy            =      -0.0000000000000000 [Eh]
	 Same-Spin Energy          =      -0.1482989983141094 [Eh]
	 Opposite-Spin Energy      =      -0.5190986765228134 [Eh]
	 Correlation Energy        =      -0.6673976748369228 [Eh]
	 Total Energy              =    -154.8123253443621081 [Eh]
	 SCS Total Energy          =    -154.8172790807905983 [Eh]
                               Psi4 1.9.1 release
    Molecular point group: c1

    Geometry (in Bohr), charge = 0, multiplicity = 1:

       Center              X                  Y                   Z               Mass
    ------------   -----------------  -----------------  -----------------  -----------------
         C            2.257854223328     2.088253193294     0.410089466486    12.000000000000
         C            2.076017216632    -0.444939795691    -0.880901502561    12.000000000000
         O            0.434793856124    -2.147188081969     0.436989717881    15.994914619570
         H            1.047594244087    -2.308423294445     2.139937202825     1.007825032230
         H            0.396589263045     2.936530464025     0.579605458844     1.007825032230
         H            3.074622200642     1.892447331078     2.288613295472     1.007825032230
         H            3.466111092875     3.349380820379    -0.673957594562     1.007825032230
         H            1.239856869817    -0.248875040997    -2.743173686868     1.007825032230
         H            3.933332649312    -1.306634121913    -1.098325831651     1.007825032230
         O           -3.561173765616     0.409290112335    -0.038253725958    15.994914619570
         H           -5.015792340414    -0.571594909798    -0.487065570480     1.007825032230
         H           -2.226218318261    -0.816692388270     0.219400982618     1.007825032230

  Charge       = 0
  Multiplicity = 1
  Basis Set: AUG-CC-PVTZ
    Blend: AUG-CC-PVTZ
  Basis Set: (AUG-CC-PVTZ AUX)
    Blend: AUG-CC-PVTZ-JKFIT

    Orbital Energies [Eh]
    ---------------------

    Doubly Occupied:

       1A    -20.581073     2A    -20.517568     3A    -11.284255
       4A    -11.217264     5A     -1.389797     6A     -1.308492
       7A     -1.024690     8A     -0.860767     9A     -0.734078
      10A     -0.670557    11A     -0.639126    12A     -0.619733
      13A     -0.578227    14A     -0.533529    15A     -0.523184
      16A     -0.497070    17A     -0.469490    18A     -0.461942

  @DF-RHF Final Energy:  -230.20405692179094

   => Energetics <=

    Nuclear Repulsion Energy =            138.4800833436211747
    One-Electron Energy =                -589.5465970574863377
    Two-Electron Energy =                 220.8624567920742265
    Total Energy =                       -230.2040569217909365
 Dipole X            :         -6.0773602            6.9082850            0.8309248
 Dipole Y            :          0.6937592           -1.1171645           -0.4234053
 Dipole Z            :         -0.4096429            0.5900500            0.1804071
 Magnitude           :                                                    0.9498710
  Basis Set: (AUG-CC-PVTZ AUX)
    Blend: AUG-CC-PVTZ-RI
	 Reference Energy          =    -230.2040569217909365 [Eh]
	 Singles Energy            =      -0.0000000000000000 [Eh]
	 Same-Spin Energy          =      -0.2209241797387313 [Eh]
	 Opposite-Spin Energy      =      -0.7382039660490214 [Eh]
	 Correlation Energy        =      -0.9591281457877527 [Eh]
	 Total Energy              =    -231.1631850675786950 [Eh]

	 ================> DF-SCS-MP2 Energies <==================
	-----------------------------------------------------------
	 SCS Same-Spin Scale       =       0.3333333333333333 [-]
	 SCS Opposite-Spin Scale   =       1.2000000000000000 [-]
	 SCS Same-Spin Energy      =      -0.0736413932462438 [Eh]
	 SCS Opposite-Spin Energy  =      -0.8858447592588257 [Eh]
	 SCS Correlation Energy    =      -0.9594861525050694 [Eh]
	 SCS Total Energy          =    -231.1635430742960011 [Eh]
	-----------------------------------------------------------

*** Psi4 exiting successfully. Buy a developer a beer!
