                               Psi4 1.9.1 release

  ==> Input File <==

--------------------------------------------------------------------------
MEMORY 10 GB

molecule dimer {
0 1
C    1.194805   1.105056   0.217010
C    1.098581  -0.235452  -0.466153
O    0.230083  -1.136243   0.231245
H    0.554363  -1.221565   1.132406
H    0.209866   1.553945   0.306714
H    1.627020   1.001440   1.211082
H    1.834187   1.772416  -0.356643
H    0.656104  -0.131699  -1.451625
H    2.081430  -0.691441  -0.581209
--
0 1
O   -1.649539   0.066273   0.007700
H   -2.419290  -0.452789  -0.229801
H   -0.943111  -0.582489   0.144045

units ang
no_reorient
no_com
symmetry c1
}

set {
basis        aug-cc-pVTZ
scf_type     df
}

energy("mp2", bsse_type="cp")
--------------------------------------------------------------------------

                               Psi4 1.9.1 release
    Molecular point group: c1
  Charge       = 0
  Multiplicity = 1
  Basis Set: AUG-CC-PVTZ
    Blend: AUG-CC-PVTZ
  Basis Set: (AUG-CC-PVTZ AUX)
    Blend: AUG-CC-PVTZ-JKFIT
  @DF-RHF Final Energy:   -76.06024832210583
    Total Energy =                        -76.0602483221058208
 Dipole X            :         31.2479315          -31.2914326           -0.0435010
 Dipole Y            :          0.1796508           -0.9544893           -0.7748385
 Dipole Z            :         -0.0216426           -0.0456482           -0.0672908
 Magnitude           :                                                    0.7789706
  Basis Set: (AUG-CC-PVTZ AUX)
    Blend: AUG-CC-PVTZ-RI
	 Reference Energy          =     -76.0602483221058350 [Eh]
	 Singles Energy            =      -0.0000000000000000 [Eh]
	 Same-Spin Energy          =      -0.0685707203050024 [Eh]
	 Opposite-Spin Energy      =      -0.2169840749652184 [Eh]
	 Correlation Energy        =      -0.2855547952702208 [Eh]
	 Total Energy              =     -76.3458031173760503 [Eh]
	 SCS Total Energy          =     -76.3434861188324305 [Eh]
                               Psi4 1.9.1 release
    Molecular point group: c1
  Multiplicity = 1
  Basis Set: AUG-CC-PVTZ
    Blend: AUG-CC-PVTZ
  Basis Set: (AUG-CC-PVTZ AUX)
    Blend: AUG-CC-PVTZ-JKFIT
  @DF-RHF Final Energy:  -154.14497567287532
    Total Energy =                       -154.1449756728753187
  Basis Set: (AUG-CC-PVTZ AUX)
	 Singles Energy            =      -0.0000000000000000 [Eh]
	 Same-Spin Energy          =      -0.1484096748893703 [Eh]
	 Opposite-Spin Energy      =      -0.5198147321914792 [Eh]
	 Correlation Energy        =      -0.6682244070808496 [Eh]
	 Total Energy              =    -154.8132000799561752 [Eh]
	 SCS Total Energy          =    -154.8182232431348950 [Eh]
                               Psi4 1.9.1 release
    Molecular point group: c1

    Geometry (in Bohr), charge = 0, multiplicity = 1:

       Center              X                  Y                   Z               Mass
    ------------   -----------------  -----------------  -----------------  -----------------
         C            2.257854223328     2.088253193294     0.410089466486    12.000000000000
         C            2.076017216632    -0.444939795691    -0.880901502561    12.000000000000
         O            0.434793856124    -2.147188081969     0.436989717881    15.994914619570
         H            1.047594244087    -2.308423294445     2.139937202825     1.007825032230
         H            0.396589263045     2.936530464025     0.579605458844     1.007825032230
         H            3.074622200642     1.892447331078     2.288613295472     1.007825032230
         H            3.466111092875     3.349380820379    -0.673957594562     1.007825032230
         H            1.239856869817    -0.248875040997    -2.743173686868     1.007825032230
         H            3.933332649312    -1.306634121913    -1.098325831651     1.007825032230
         O           -3.117176943262     0.125237819512     0.014550891166    15.994914619570
         H           -4.571795518059    -0.855647202620    -0.434260953356     1.007825032230
         H           -1.782221495907    -1.100744681092     0.272205599742     1.007825032230

  Charge       = 0
  Multiplicity = 1
  Basis Set: AUG-CC-PVTZ
    Blend: AUG-CC-PVTZ
  Basis Set: (AUG-CC-PVTZ AUX)
    Blend: AUG-CC-PVTZ-JKFIT

    Orbital Energies [Eh]
    ---------------------

    Doubly Occupied:

       1A    -20.589737     2A    -20.489001     3A    -11.288487
       4A    -11.217521     5A     -1.415000     6A     -1.288885
       7A     -1.028600     8A     -0.866260     9A     -0.765006
      10A     -0.671361    11A     -0.648437    12A     -0.617482
      13A     -0.577120    14A     -0.535596    15A     -0.505817
      16A     -0.499948    17A     -0.460165    18A     -0.447228

  @DF-RHF Final Energy:  -230.17979899712151

   => Energetics <=

    Nuclear Repulsion Energy =            142.8961345847228301
    One-Electron Energy =                -598.3285617757994714
    Two-Electron Energy =                 225.2526281939551041
    Total Energy =                       -230.1797989971215088
 Dipole X            :        -10.3555700           11.3482532            0.9926832
 Dipole Y            :          3.4867361           -3.9576874           -0.4709514
 Dipole Z            :         -0.9260894            1.1180961            0.1920067
 Magnitude           :                                                    1.1153841
  Basis Set: (AUG-CC-PVTZ AUX)
    Blend: AUG-CC-PVTZ-RI
	 Reference Energy          =    -230.1797989971215088 [Eh]
	 Singles Energy            =      -0.0000000000000000 [Eh]
	 Same-Spin Energy          =      -0.2231601798549098 [Eh]
	 Opposite-Spin Energy      =      -0.7401229813590278 [Eh]
	 Correlation Energy        =      -0.9632831612139375 [Eh]
	 Total Energy              =    -231.1430821583354600 [Eh]

	 ================> DF-SCS-MP2 Energies <==================
	-----------------------------------------------------------
	 SCS Same-Spin Scale       =       0.3333333333333333 [-]
	 SCS Opposite-Spin Scale   =       1.2000000000000000 [-]
	 SCS Same-Spin Energy      =      -0.0743867266183033 [Eh]
	 SCS Opposite-Spin Energy  =      -0.8881475776308333 [Eh]
	 SCS Correlation Energy    =      -0.9625343042491366 [Eh]
	 SCS Total Energy          =    -231.1423333013706554 [Eh]
	-----------------------------------------------------------

*** Psi4 exiting successfully. Buy a developer a beer!
