                               Psi4 1.9.1 release

  ==> Input File <==

--------------------------------------------------------------------------
MEMORY 10 GB

molecule dimer {
0 1
C    1.194805   1.105056   0.217010
C    1.098581  -0.235452  -0.466153
O    0.230083  -1.136243   0.231245
H    0.554363  -1.221565   1.132406
H    0.209866   1.553945   0.306714
H    1.627020   1.001440   1.211082
H    1.834187   1.772416  -0.356643
H    0.656104  -0.131699  -1.451625
H    2.081430  -0.691441  -0.581209
--
0 1
O   -2.001969   0.291745  -0.034214
H   -2.771720  -0.227317  -0.271715
H   -1.295541  -0.357017   0.102131

units ang
no_reorient
no_com
symmetry c1
}

set {
basis        aug-cc-pVTZ
scf_type     df
}

energy("mp2", bsse_type="cp")
--------------------------------------------------------------------------

                               Psi4 1.9.1 release
    Molecular point group: c1
  Charge       = 0
  Multiplicity = 1
  Basis Set: AUG-CC-PVTZ
    Blend: AUG-CC-PVTZ
  Basis Set: (AUG-CC-PVTZ AUX)
    Blend: AUG-CC-PVTZ-JKFIT
  @DF-RHF Final Energy:   -76.06019193703494
    Total Energy =                        -76.0601919370349435
 Dipole X            :         37.9078154          -37.9513943           -0.0435789
 Dipole Y            :         -4.0814501            3.3063140           -0.7751362
 Dipole Z            :          0.7703741           -0.8377080           -0.0673340
 Magnitude           :                                                    0.7792747
  Basis Set: (AUG-CC-PVTZ AUX)
    Blend: AUG-CC-PVTZ-RI
	 Reference Energy          =     -76.0601919370349435 [Eh]
	 Singles Energy            =      -0.0000000000000000 [Eh]
	 Same-Spin Energy          =      -0.0685274709161617 [Eh]
	 Opposite-Spin Energy      =      -0.2164988318738741 [Eh]
	 Correlation Energy        =      -0.2850263027900358 [Eh]
	 Total Energy              =     -76.3452182398249732 [Eh]
	 SCS Total Energy          =     -76.3428330255889733 [Eh]
                               Psi4 1.9.1 release
    Molecular point group: c1
  Multiplicity = 1
  Basis Set: AUG-CC-PVTZ
    Blend: AUG-CC-PVTZ
  Basis Set: (AUG-CC-PVTZ AUX)
    Blend: AUG-CC-PVTZ-JKFIT
  @DF-RHF Final Energy:  -154.14490501958102
    Total Energy =                       -154.1449050195810173
  Basis Set: (AUG-CC-PVTZ AUX)
	 Singles Energy            =      -0.0000000000000000 [Eh]
	 Same-Spin Energy          =      -0.1482751988963678 [Eh]
	 Opposite-Spin Energy      =      -0.5188495002286307 [Eh]
	 Correlation Energy        =      -0.6671246991249985 [Eh]
	 Total Energy              =    -154.8120297187060146 [Eh]
	 SCS Total Energy          =    -154.8169494861541580 [Eh]
                               Psi4 1.9.1 release
    Molecular point group: c1

    Geometry (in Bohr), charge = 0, multiplicity = 1:

       Center              X                  Y                   Z               Mass
    ------------   -----------------  -----------------  -----------------  -----------------
         C            2.257854223328     2.088253193294     0.410089466486    12.000000000000
         C            2.076017216632    -0.444939795691    -0.880901502561    12.000000000000
         O            0.434793856124    -2.147188081969     0.436989717881    15.994914619570
         H            1.047594244087    -2.308423294445     2.139937202825     1.007825032230
         H            0.396589263045     2.936530464025     0.579605458844     1.007825032230
         H            3.074622200642     1.892447331078     2.288613295472     1.007825032230
         H            3.466111092875     3.349380820379    -0.673957594562     1.007825032230
         H            1.239856869817    -0.248875040997    -2.743173686868     1.007825032230
         H            3.933332649312    -1.306634121913    -1.098325831651     1.007825032230
         O           -3.783173121657     0.551318148472    -0.064655089656    15.994914619570
         H           -5.237791696454    -0.429566873661    -0.513466934179     1.007825032230
         H           -2.448217674302    -0.674664352133     0.192999618919     1.007825032230

  Charge       = 0
  Multiplicity = 1
  Basis Set: AUG-CC-PVTZ
    Blend: AUG-CC-PVTZ
  Basis Set: (AUG-CC-PVTZ AUX)
    Blend: AUG-CC-PVTZ-JKFIT

    Orbital Energies [Eh]
    ---------------------

    Doubly Occupied:

       1A    -20.577682     2A    -20.527232     3A    -11.282826
       4A    -11.217413     5A     -1.382541     6A     -1.315515
       7A     -1.023584     8A     -0.859047     9A     -0.724522
      10A     -0.673741    11A     -0.636335    12A     -0.620356
      13A     -0.575683    14A     -0.534229    15A     -0.529766
      16A     -0.495701    17A     -0.475777    18A     -0.461629

  @DF-RHF Final Energy:  -230.20848346184317

   => Energetics <=

    Nuclear Repulsion Energy =            136.5419416493655547
    One-Electron Energy =                -585.6736915772787597
    Two-Electron Energy =                 218.9232664660700607
    Total Energy =                       -230.2084834618431728
 Dipole X            :         -3.9126283            4.6882915            0.7756631
 Dipole Y            :         -0.7096881            0.3031158           -0.4065723
 Dipole Z            :         -0.1498432            0.3260363            0.1761931
 Magnitude           :                                                    0.8933075
  Basis Set: (AUG-CC-PVTZ AUX)
    Blend: AUG-CC-PVTZ-RI
	 Reference Energy          =    -230.2084834618431728 [Eh]
	 Singles Energy            =      -0.0000000000000000 [Eh]
	 Same-Spin Energy          =      -0.2200827397384915 [Eh]
	 Opposite-Spin Energy      =      -0.7373974656479443 [Eh]
	 Correlation Energy        =      -0.9574802053864357 [Eh]
	 Total Energy              =    -231.1659636672296187 [Eh]

	 ================> DF-SCS-MP2 Energies <==================
	-----------------------------------------------------------
	 SCS Same-Spin Scale       =       0.3333333333333333 [-]
	 SCS Opposite-Spin Scale   =       1.2000000000000000 [-]
	 SCS Same-Spin Energy      =      -0.0733609132461638 [Eh]
	 SCS Opposite-Spin Energy  =      -0.8848769587775331 [Eh]
	 SCS Correlation Energy    =      -0.9582378720236970 [Eh]
	 SCS Total Energy          =    -231.1667213338668603 [Eh]
	-----------------------------------------------------------

*** Psi4 exiting successfully. Buy a developer a beer!
