                               Psi4 1.9.1 release

  ==> Input File <==

--------------------------------------------------------------------------
MEMORY 10 GB

molecule dimer {
0 1
C   -2.155164  -0.955565   0.208662
C   -1.631256   0.226947  -0.556077
O   -1.450840   1.288410   0.360837
H   -1.083716   2.042894  -0.104265
H   -2.299215  -1.811793  -0.452297
H   -3.109149  -0.718332   0.683083
H   -1.453477  -1.239614   0.996988
H   -2.341754   0.510467  -1.345522
H   -0.682472  -0.038588  -1.043697
--
0 1
C    2.155265   0.955548  -0.208559
C    1.631287  -0.226997   0.556078
O    1.450717  -1.288342  -0.360942
H    1.083422  -2.042797   0.104070
H    2.299530   1.811659   0.452504
H    1.453509   1.239816  -0.996743
H    3.109152   0.718241  -0.683140
H    0.682556   0.038576   1.043780
H    2.341799  -0.510676   1.345454

units ang
no_reorient
no_com
symmetry c1
}

set {
basis        aug-cc-pVTZ
scf_type     df
}

energy("mp2", bsse_type="cp")
--------------------------------------------------------------------------

                               Psi4 1.9.1 release
    Molecular point group: c1
  Charge       = 0
  Multiplicity = 1
  Basis Set: AUG-CC-PVTZ
    Blend: AUG-CC-PVTZ
  Basis Set: (AUG-CC-PVTZ AUX)
    Blend: AUG-CC-PVTZ-JKFIT
  @DF-RHF Final Energy:  -154.14559855463847
    Total Energy =                       -154.1455985546384682
 Dipole X            :        -85.7378797           85.5951751           -0.1427047
 Dipole Y            :          8.8402594           -8.8450729           -0.0048135
 Dipole Z            :         -0.2310075            0.8758937            0.6448862
 Magnitude           :                                                    0.6605043
  Basis Set: (AUG-CC-PVTZ AUX)
    Blend: AUG-CC-PVTZ-RI
	 Reference Energy          =    -154.1455985546384682 [Eh]
	 Singles Energy            =      -0.0000000000000000 [Eh]
	 Same-Spin Energy          =      -0.1481768185163770 [Eh]
	 Opposite-Spin Energy      =      -0.5186048649820554 [Eh]
	 Correlation Energy        =      -0.6667816834984324 [Eh]
	 Total Energy              =    -154.8123802381369103 [Eh]
	 SCS Total Energy          =    -154.8173166654557349 [Eh]
                               Psi4 1.9.1 release
    Molecular point group: c1
  Multiplicity = 1
  Basis Set: AUG-CC-PVTZ
    Blend: AUG-CC-PVTZ
  Basis Set: (AUG-CC-PVTZ AUX)
    Blend: AUG-CC-PVTZ-JKFIT
  @DF-RHF Final Energy:  -154.14559849340537
    Total Energy =                       -154.1455984934053731
  Basis Set: (AUG-CC-PVTZ AUX)
	 Singles Energy            =      -0.0000000000000000 [Eh]
	 Same-Spin Energy          =      -0.1481768146309966 [Eh]
	 Opposite-Spin Energy      =      -0.5186049576955143 [Eh]
	 Correlation Energy        =      -0.6667817723265109 [Eh]
	 Total Energy              =    -154.8123802657318890 [Eh]
	 SCS Total Energy          =    -154.8173167141836473 [Eh]
                               Psi4 1.9.1 release
    Molecular point group: c1

    Geometry (in Bohr), charge = 0, multiplicity = 1:

       Center              X                  Y                   Z               Mass
    ------------   -----------------  -----------------  -----------------  -----------------
         C           -4.072669715446    -1.805756145073     0.394314032790    12.000000000000
         C           -3.082627080510     0.428867674994    -1.050833234666    12.000000000000
         O           -2.741690251859     2.434742037301     0.681883105932    15.994914619570
         H           -2.047926437777     3.860510163341    -0.197032294471     1.007825032230
         H           -4.344886653545    -3.423792566022    -0.854717457366     1.007825032230
         H           -5.875440093241    -1.357450747152     1.290839790956     1.007825032230
         H           -2.746673459652    -2.342530961283     1.884034270368     1.007825032230
         H           -4.425273713195     0.964642826084    -2.542668075778     1.007825032230
         H           -1.289685168293    -0.072920751729    -1.972301487962     1.007825032230
         C            4.072860577785     1.805724019729    -0.394119390999    12.000000000000
         C            3.082685662020    -0.428962161301     1.050835124392    12.000000000000
         O            2.741457815546    -2.434613535925    -0.682081527175    15.994914619570
         H            2.047370858296    -3.860326859907     0.196663797876     1.007825032230
         H            4.345481917274     3.423539342721     0.855108630674     1.007825032230
         H            2.746733930888     2.342912685961    -1.883571287467     1.007825032230
         H            5.875445762419     1.357278782075    -1.290947505345     1.007825032230
         H            1.289843905288     0.072898075016     1.972458335230     1.007825032230
         H            4.425358750871    -0.965037778844     2.542539574402     1.007825032230

  Charge       = 0
  Multiplicity = 1
  Basis Set: AUG-CC-PVTZ
    Blend: AUG-CC-PVTZ
  Basis Set: (AUG-CC-PVTZ AUX)
    Blend: AUG-CC-PVTZ-JKFIT

    Orbital Energies [Eh]
    ---------------------

    Doubly Occupied:

       1A    -20.555619     2A    -20.555618     3A    -11.269154
       4A    -11.269152     5A    -11.212439     6A    -11.212437
       7A     -1.362223     8A     -1.360613     9A     -1.014501
      10A     -1.013618    11A     -0.832977    12A     -0.832137
      13A     -0.703486    14A     -0.701433    15A     -0.662229
      16A     -0.627227    17A     -0.575538    18A     -0.572877
      19A     -0.534600    20A     -0.534485    21A     -0.529621
      22A     -0.521830    23A     -0.491087    24A     -0.484914
      25A     -0.451227    26A     -0.428351

  @DF-RHF Final Energy:  -308.28886135283153

   => Energetics <=

    Nuclear Repulsion Energy =            258.9194207737855891
    One-Electron Energy =                -933.7977742440409656
    Two-Electron Energy =                 366.5894921174239016
    Total Energy =                       -308.2888613528315318
 Dipole X            :         -0.0000154           -0.0000132           -0.0000287
 Dipole Y            :         -0.0000118           -0.0000094           -0.0000212
 Dipole Z            :         -0.0000153           -0.0000019           -0.0000172
 Magnitude           :                                                    0.0000396
  Basis Set: (AUG-CC-PVTZ AUX)
    Blend: AUG-CC-PVTZ-RI
	 Reference Energy          =    -308.2888613528315318 [Eh]
	 Singles Energy            =      -0.0000000000000000 [Eh]
	 Same-Spin Energy          =      -0.2995156670673792 [Eh]
	 Opposite-Spin Energy      =      -1.0402274748323490 [Eh]
	 Correlation Energy        =      -1.3397431418997283 [Eh]
	 Total Energy              =    -309.6286044947312348 [Eh]

	 ================> DF-SCS-MP2 Energies <==================
	-----------------------------------------------------------
	 SCS Same-Spin Scale       =       0.3333333333333333 [-]
	 SCS Opposite-Spin Scale   =       1.2000000000000000 [-]
	 SCS Same-Spin Energy      =      -0.0998385556891264 [Eh]
	 SCS Opposite-Spin Energy  =      -1.2482729697988189 [Eh]
	 SCS Correlation Energy    =      -1.3481115254879452 [Eh]
	 SCS Total Energy          =    -309.6369728783194546 [Eh]
	-----------------------------------------------------------

*** Psi4 exiting successfully. Buy a developer a beer!
