                               Psi4 1.9.1 release

  ==> Input File <==

--------------------------------------------------------------------------
MEMORY 10 GB

molecule dimer {
0 1
C   -1.475476   0.559489  -0.311796
C   -2.845680  -0.030863  -0.532347
O   -3.351979  -0.661248   0.620729
H   -3.399111  -0.010457   1.325488
H   -1.080118   1.002664  -1.228730
H   -0.778691  -0.210094   0.028275
H   -1.505016   1.345121   0.449598
H   -2.807199  -0.804793  -1.303177
H   -3.538143   0.741653  -0.897109
--
0 1
C    2.033266   0.985127   0.594046
C    2.482344   0.039189  -0.491480
O    3.199458  -1.062061   0.013739
H    2.638174  -1.527834   0.638715
H    1.511086   1.848424   0.175115
H    2.888577   1.342142   1.170665
H    1.344434   0.487393   1.284161
H    3.161241   0.546368  -1.181959
H    1.618213  -0.291760  -1.087322

units ang
no_reorient
no_com
symmetry c1
}

set {
basis        aug-cc-pVTZ
scf_type     df
}

energy("mp2", bsse_type="cp")
--------------------------------------------------------------------------

                               Psi4 1.9.1 release
    Molecular point group: c1
  Charge       = 0
  Multiplicity = 1
  Basis Set: AUG-CC-PVTZ
    Blend: AUG-CC-PVTZ
  Basis Set: (AUG-CC-PVTZ AUX)
    Blend: AUG-CC-PVTZ-JKFIT
  @DF-RHF Final Energy:  -154.14512808301723
    Total Energy =                       -154.1451280830172266
 Dipole X            :       -125.0845597          124.4404477           -0.6441121
 Dipole Y            :          0.1257114            0.1023117            0.2280231
 Dipole Z            :         -3.0753140            3.2591785            0.1838645
 Magnitude           :                                                    0.7075882
  Basis Set: (AUG-CC-PVTZ AUX)
    Blend: AUG-CC-PVTZ-RI
	 Reference Energy          =    -154.1451280830172266 [Eh]
	 Singles Energy            =      -0.0000000000000000 [Eh]
	 Same-Spin Energy          =      -0.1481581092761603 [Eh]
	 Opposite-Spin Energy      =      -0.5179206522612989 [Eh]
	 Correlation Energy        =      -0.6660787615374592 [Eh]
	 Total Energy              =    -154.8112068445546754 [Eh]
	 SCS Total Energy          =    -154.8160189021561735 [Eh]
                               Psi4 1.9.1 release
    Molecular point group: c1
  Multiplicity = 1
  Basis Set: AUG-CC-PVTZ
    Blend: AUG-CC-PVTZ
  Basis Set: (AUG-CC-PVTZ AUX)
    Blend: AUG-CC-PVTZ-JKFIT
  @DF-RHF Final Energy:  -154.14513443838644
    Total Energy =                       -154.1451344383864352
  Basis Set: (AUG-CC-PVTZ AUX)
	 Singles Energy            =      -0.0000000000000000 [Eh]
	 Same-Spin Energy          =      -0.1481640126280138 [Eh]
	 Opposite-Spin Energy      =      -0.5180436506520223 [Eh]
	 Correlation Energy        =      -0.6662076632800361 [Eh]
	 Total Energy              =    -154.8113421016664688 [Eh]
	 SCS Total Energy          =    -154.8161748233781907 [Eh]
                               Psi4 1.9.1 release
    Molecular point group: c1

    Geometry (in Bohr), charge = 0, multiplicity = 1:

       Center              X                  Y                   Z               Mass
    ------------   -----------------  -----------------  -----------------  -----------------
         C           -2.788245544686     1.057280980206    -0.589209047013    12.000000000000
         C           -5.377555840693    -0.058322617410    -1.005990033709    12.000000000000
         O           -6.334322288286    -1.249577621007     1.173007808129    15.994914619570
         H           -6.423388860031    -0.019760866094     2.504809302581     1.007825032230
         H           -2.041127203177     1.894760355856    -2.321963182134     1.007825032230
         H           -1.471512726359    -0.397020120602     0.053432006197     1.007825032230
         H           -2.844068054432     2.541910295602     0.849617086554     1.007825032230
         H           -5.304837289659    -1.520838357686    -2.462647622996     1.007825032230
         H           -6.686121262706     1.401521050124    -1.695290314683     1.007825032230
         C            3.842315880205     1.861620228794     1.122584245924    12.000000000000
         C            4.690950309173     0.074056477131    -0.928762596140    12.000000000000
         O            6.046099369905    -2.007004418530     0.025962947238    15.994914619570
         H            4.985426331304    -2.887187825163     1.206996422222     1.007825032230
         H            2.855538692014     3.493015123723     0.330919390460     1.007825032230
         H            5.458619422297     2.536280801474     2.212236234659     1.007825032230
         H            2.540612053754     0.921039285465     2.426712590994     1.007825032230
         H            5.973879706568     1.032485883714    -2.233578801520     1.007825032230
         H            3.057979382655    -0.551346494364    -2.054740790185     1.007825032230

  Charge       = 0
  Multiplicity = 1
  Basis Set: AUG-CC-PVTZ
    Blend: AUG-CC-PVTZ
  Basis Set: (AUG-CC-PVTZ AUX)
    Blend: AUG-CC-PVTZ-JKFIT

    Orbital Energies [Eh]
    ---------------------

    Doubly Occupied:

       1A    -20.559910     2A    -20.556365     3A    -11.277499
       4A    -11.274337     5A    -11.223620     6A    -11.219238
       7A     -1.367161     8A     -1.363746     9A     -1.020124
      10A     -1.014779    11A     -0.853705    12A     -0.849272
      13A     -0.693817    14A     -0.688536    15A     -0.631067
      16A     -0.627352    17A     -0.616706    18A     -0.611870
      19A     -0.552218    20A     -0.543521    21A     -0.532109
      22A     -0.526816    23A     -0.485532    24A     -0.481160
      25A     -0.448065    26A     -0.442915

  @DF-RHF Final Energy:  -308.28878169752704

   => Energetics <=

    Nuclear Repulsion Energy =            235.3221433366225597
    One-Electron Energy =                -886.2989637803912046
    Two-Electron Energy =                 342.6880387462416593
    Total Energy =                       -308.2887816975270425
 Dipole X            :         -0.4329173            0.0000057           -0.4329116
 Dipole Y            :          0.8903199            0.0000132            0.8903331
 Dipole Z            :          0.1087224            0.0000038            0.1087262
 Magnitude           :                                                    0.9959553
  Basis Set: (AUG-CC-PVTZ AUX)
    Blend: AUG-CC-PVTZ-RI
	 Reference Energy          =    -308.2887816975270425 [Eh]
	 Singles Energy            =      -0.0000000000000000 [Eh]
	 Same-Spin Energy          =      -0.2976245244125069 [Eh]
	 Opposite-Spin Energy      =      -1.0373537921472578 [Eh]
	 Correlation Energy        =      -1.3349783165597646 [Eh]
	 Total Energy              =    -309.6237600140868267 [Eh]

	 ================> DF-SCS-MP2 Energies <==================
	-----------------------------------------------------------
	 SCS Same-Spin Scale       =       0.3333333333333333 [-]
	 SCS Opposite-Spin Scale   =       1.2000000000000000 [-]
	 SCS Same-Spin Energy      =      -0.0992081748041690 [Eh]
	 SCS Opposite-Spin Energy  =      -1.2448245505767093 [Eh]
	 SCS Correlation Energy    =      -1.3440327253808781 [Eh]
	 SCS Total Energy          =    -309.6328144229079271 [Eh]
	-----------------------------------------------------------

*** Psi4 exiting successfully. Buy a developer a beer!
