                               Psi4 1.9.1 release

  ==> Input File <==

--------------------------------------------------------------------------
MEMORY 10 GB

molecule dimer {
0 1
C    1.408102  -0.652268   0.024288
C    2.907861  -0.561872   0.018229
O    3.256630   0.800470  -0.079127
H    4.212007   0.881490  -0.080575
H    1.075837  -1.689148   0.097709
H    0.998612  -0.221592  -0.892111
H    0.998884  -0.097528   0.871496
H    3.315863  -1.135134  -0.826967
H    3.315333  -1.009035   0.936547
--
0 1
C   -1.971704   1.243959   0.058721
C   -2.162530  -0.251124   0.106251
O   -3.509689  -0.631859  -0.050231
H   -3.833955  -0.258651  -0.873672
H   -0.925121   1.514103   0.216607
H   -2.576813   1.733320   0.824279
H   -2.271704   1.643484  -0.914933
H   -1.851260  -0.644740   1.077857
H   -1.523581  -0.737624  -0.646302

units ang
no_reorient
no_com
symmetry c1
}

set {
basis        aug-cc-pVTZ
scf_type     df
}

energy("mp2", bsse_type="cp")
--------------------------------------------------------------------------

                               Psi4 1.9.1 release
    Molecular point group: c1
  Charge       = 0
  Multiplicity = 1
  Basis Set: AUG-CC-PVTZ
    Blend: AUG-CC-PVTZ
  Basis Set: (AUG-CC-PVTZ AUX)
    Blend: AUG-CC-PVTZ-JKFIT
  @DF-RHF Final Energy:  -154.14507486020261
    Total Energy =                       -154.1450748602026124
 Dipole X            :        124.8588387         -124.4674727            0.3913660
 Dipole Y            :         -7.4160425            7.8461996            0.4301571
 Dipole Z            :         -0.9245213            0.5136654           -0.4108559
 Magnitude           :                                                    0.7120429
  Basis Set: (AUG-CC-PVTZ AUX)
    Blend: AUG-CC-PVTZ-RI
	 Reference Energy          =    -154.1450748602026124 [Eh]
	 Singles Energy            =      -0.0000000000000000 [Eh]
	 Same-Spin Energy          =      -0.1481791803619925 [Eh]
	 Opposite-Spin Energy      =      -0.5180290040197157 [Eh]
	 Correlation Energy        =      -0.6662081843817083 [Eh]
	 Total Energy              =    -154.8112830445843144 [Eh]
	 SCS Total Energy          =    -154.8161027251469477 [Eh]
                               Psi4 1.9.1 release
    Molecular point group: c1
  Multiplicity = 1
  Basis Set: AUG-CC-PVTZ
    Blend: AUG-CC-PVTZ
  Basis Set: (AUG-CC-PVTZ AUX)
    Blend: AUG-CC-PVTZ-JKFIT
  @DF-RHF Final Energy:  -154.14559526545443
    Total Energy =                       -154.1455952654544319
  Basis Set: (AUG-CC-PVTZ AUX)
	 Singles Energy            =      -0.0000000000000000 [Eh]
	 Same-Spin Energy          =      -0.1481107169700510 [Eh]
	 Opposite-Spin Energy      =      -0.5180343004468417 [Eh]
	 Correlation Energy        =      -0.6661450174168928 [Eh]
	 Total Energy              =    -154.8117402828713125 [Eh]
	 SCS Total Energy          =    -154.8166066649806680 [Eh]
                               Psi4 1.9.1 release
    Molecular point group: c1

    Geometry (in Bohr), charge = 0, multiplicity = 1:

       Center              X                  Y                   Z               Mass
    ------------   -----------------  -----------------  -----------------  -----------------
         C            2.660927136709    -1.232607880400     0.045897668135    12.000000000000
         C            5.495060900900    -1.061784197563     0.034447817541    12.000000000000
         O            6.154138791950     1.512669071645    -0.149528359129    15.994914619570
         H            7.959539668511     1.665774682330    -0.152264682559     1.007825032230
         H            2.033037285634    -3.192027105365     0.184643249992     1.007825032230
         H            1.887103185596    -0.418748191592    -1.685845463508     1.007825032230
         H            1.887617191102    -0.184301209564     1.646888759432     1.007825032230
         H            6.266072939539    -2.145092375695    -1.562741144791     1.007825032230
         H            6.265071384692    -1.906799801001     1.769817333619     1.007825032230
         C           -3.725980560470     2.350741821298     0.110966607813    12.000000000000
         C           -4.086589438086    -0.474555583529     0.200785290556    12.000000000000
         O           -6.632350995532    -1.194040459906    -0.094922833008    15.994914619570
         H           -7.245124927330    -0.488779552076    -1.651000803481     1.007825032230
         H           -1.748225322910     2.861239995734     0.409327906857     1.007825032230
         H           -4.869470846519     3.275500087779     1.557661560966     1.007825032230
         H           -4.292898398107     3.105734651572    -1.728972793144     1.007825032230
         H           -3.498374387015    -1.218382022128     2.036854532408     1.007825032230
         H           -2.879150819951    -1.393907343565    -1.221333774336     1.007825032230

  Charge       = 0
  Multiplicity = 1
  Basis Set: AUG-CC-PVTZ
    Blend: AUG-CC-PVTZ
  Basis Set: (AUG-CC-PVTZ AUX)
    Blend: AUG-CC-PVTZ-JKFIT

    Orbital Energies [Eh]
    ---------------------

    Doubly Occupied:

       1A    -20.559422     2A    -20.552859     3A    -11.276818
       4A    -11.269822     5A    -11.215262     6A    -11.213644
       7A     -1.366178     8A     -1.359986     9A     -1.018768
      10A     -1.010142    11A     -0.845599    12A     -0.837213
      13A     -0.707668    14A     -0.684005    15A     -0.649630
      16A     -0.623174    17A     -0.609624    18A     -0.577625
      19A     -0.541731    20A     -0.537834    21A     -0.529303
      22A     -0.521206    23A     -0.492738    24A     -0.477743
      25A     -0.443756    26A     -0.438796

  @DF-RHF Final Energy:  -308.28931381404550

   => Energetics <=

    Nuclear Repulsion Energy =            236.2132014503098105
    One-Electron Energy =                -888.2839365352442655
    Two-Electron Energy =                 343.7814212708889272
    Total Energy =                       -308.2893138140454994
 Dipole X            :          0.8578485            0.0000076            0.8578561
 Dipole Y            :         -0.0772222            0.0000057           -0.0772166
 Dipole Z            :         -0.3706965            0.0000094           -0.3706871
 Magnitude           :                                                    0.9377038
  Basis Set: (AUG-CC-PVTZ AUX)
    Blend: AUG-CC-PVTZ-RI
	 Reference Energy          =    -308.2893138140454994 [Eh]
	 Singles Energy            =      -0.0000000000000000 [Eh]
	 Same-Spin Energy          =      -0.2977018300575767 [Eh]
	 Opposite-Spin Energy      =      -1.0375322969478300 [Eh]
	 Correlation Energy        =      -1.3352341270054067 [Eh]
	 Total Energy              =    -309.6245479410508779 [Eh]

	 ================> DF-SCS-MP2 Energies <==================
	-----------------------------------------------------------
	 SCS Same-Spin Scale       =       0.3333333333333333 [-]
	 SCS Opposite-Spin Scale   =       1.2000000000000000 [-]
	 SCS Same-Spin Energy      =      -0.0992339433525256 [Eh]
	 SCS Opposite-Spin Energy  =      -1.2450387563373959 [Eh]
	 SCS Correlation Energy    =      -1.3442726996899215 [Eh]
	 SCS Total Energy          =    -309.6335865137353949 [Eh]
	-----------------------------------------------------------

*** Psi4 exiting successfully. Buy a developer a beer!
