                               Psi4 1.9.1 release

  ==> Input File <==

--------------------------------------------------------------------------
MEMORY 10 GB

molecule dimer {
0 1
C   -1.831657  -0.837081   0.886327
C   -1.639715  -0.303433  -0.511246
O   -1.708178   1.107656  -0.558073
H   -2.549813   1.383081  -0.185907
H   -1.716619  -1.922841   0.913057
H   -2.829746  -0.599590   1.267641
H   -1.099505  -0.395839   1.567667
H   -2.375171  -0.751537  -1.194355
H   -0.648066  -0.567271  -0.890410
--
0 1
C    1.570030   1.079434   0.625875
C    1.898950  -0.373594   0.394867
O    1.758896  -0.754222  -0.957044
H    2.230812  -0.117480  -1.500073
H    1.646712   1.333345   1.685611
H    0.557707   1.312018   0.284040
H    2.268859   1.724683   0.084118
H    1.212315  -1.015944   0.955554
H    2.911124  -0.602052   0.759050

units ang
no_reorient
no_com
symmetry c1
}

set {
basis        aug-cc-pVTZ
scf_type     df
}

energy("mp2", bsse_type="cp")
--------------------------------------------------------------------------

                               Psi4 1.9.1 release
    Molecular point group: c1
  Charge       = 0
  Multiplicity = 1
  Basis Set: AUG-CC-PVTZ
    Blend: AUG-CC-PVTZ
  Basis Set: (AUG-CC-PVTZ AUX)
    Blend: AUG-CC-PVTZ-JKFIT
  @DF-RHF Final Energy:  -154.14493586691711
    Total Energy =                       -154.1449358669171090
 Dipole X            :        -86.0670158           86.3842510            0.3172352
 Dipole Y            :         -0.9912559            1.5794973            0.5882415
 Dipole Z            :         -1.1146297            1.3915943            0.2769646
 Magnitude           :                                                    0.7234470
  Basis Set: (AUG-CC-PVTZ AUX)
    Blend: AUG-CC-PVTZ-RI
	 Reference Energy          =    -154.1449358669171090 [Eh]
	 Singles Energy            =      -0.0000000000000000 [Eh]
	 Same-Spin Energy          =      -0.1482734531964531 [Eh]
	 Opposite-Spin Energy      =      -0.5188274948064002 [Eh]
	 Correlation Energy        =      -0.6671009480028534 [Eh]
	 Total Energy              =    -154.8120368149199635 [Eh]
	 SCS Total Energy          =    -154.8169533450836184 [Eh]
                               Psi4 1.9.1 release
    Molecular point group: c1
  Multiplicity = 1
  Basis Set: AUG-CC-PVTZ
    Blend: AUG-CC-PVTZ
  Basis Set: (AUG-CC-PVTZ AUX)
    Blend: AUG-CC-PVTZ-JKFIT
  @DF-RHF Final Energy:  -154.14509269400349
    Total Energy =                       -154.1450926940034947
  Basis Set: (AUG-CC-PVTZ AUX)
	 Singles Energy            =      -0.0000000000000000 [Eh]
	 Same-Spin Energy          =      -0.1482367971693153 [Eh]
	 Opposite-Spin Energy      =      -0.5188124686549077 [Eh]
	 Correlation Energy        =      -0.6670492658242231 [Eh]
	 Total Energy              =    -154.8121419598277271 [Eh]
	 SCS Total Energy          =    -154.8170799221124980 [Eh]
                               Psi4 1.9.1 release
    Molecular point group: c1

    Geometry (in Bohr), charge = 0, multiplicity = 1:

       Center              X                  Y                   Z               Mass
    ------------   -----------------  -----------------  -----------------  -----------------
         C           -3.461330085778    -1.581853834824     1.674915287599    12.000000000000
         C           -3.098612273805    -0.573405267426    -0.966114922736    12.000000000000
         O           -3.227988593532     2.093166481220    -1.054605128013    15.994914619570
         H           -4.818448241132     2.613644299324    -0.351313314805     1.007825032230
         H           -3.243939771757    -3.633642872801     1.725427666932     1.007825032230
         H           -5.347444944610    -1.133060887563     2.395494315401     1.007825032230
         H           -2.077763323572    -0.748027299775     2.962461285918     1.007825032230
         H           -4.488422691130    -1.420199103148    -2.257003846571     1.007825032230
         H           -1.224667251221    -1.071986828915    -1.682631039369     1.007825032230
         C            2.966926708753     2.039834630507     1.182732338771    12.000000000000
         C            3.588495425938    -0.705990342114     0.746190485981    12.000000000000
         O            3.323831723163    -1.425273017795    -1.808551050013    15.994914619570
         H            4.215623717385    -0.222005025219    -2.834727138194     1.007825032230
         H            3.111834687505     2.519656880749     3.185343144059     1.007825032230
         H            1.053913488251     2.479354691671     0.536757808675     1.007825032230
         H            4.287522127280     3.259178523233     0.158959982221     1.007825032230
         H            2.290943327784    -1.919855918802     1.805735358086     1.007825032230
         H            5.501227077247    -1.137713393284     1.434396615529     1.007825032230

  Charge       = 0
  Multiplicity = 1
  Basis Set: AUG-CC-PVTZ
    Blend: AUG-CC-PVTZ
  Basis Set: (AUG-CC-PVTZ AUX)
    Blend: AUG-CC-PVTZ-JKFIT

    Orbital Energies [Eh]
    ---------------------

    Doubly Occupied:

       1A    -20.553767     2A    -20.552535     3A    -11.270098
       4A    -11.263791     5A    -11.214990     6A    -11.208745
       7A     -1.360993     8A     -1.358324     9A     -1.011241
      10A     -1.006979    11A     -0.845092    12A     -0.843050
      13A     -0.689762    14A     -0.676917    15A     -0.625741
      16A     -0.619383    17A     -0.613982    18A     -0.603591
      19A     -0.543693    20A     -0.534449    21A     -0.523702
      22A     -0.518431    23A     -0.478985    24A     -0.474398
      25A     -0.439212    26A     -0.437617

  @DF-RHF Final Energy:  -308.28790276742870

   => Energetics <=

    Nuclear Repulsion Energy =            257.8440728630747003
    One-Electron Energy =                -931.7250102629124058
    Two-Electron Energy =                 365.5930346324089442
    Total Energy =                       -308.2879027674287045
 Dipole X            :         -0.1484792            0.0000019           -0.1484773
 Dipole Y            :          0.1384745            0.0000019            0.1384764
 Dipole Z            :          0.4727539           -0.0000094            0.4727444
 Magnitude           :                                                    0.5144983
  Basis Set: (AUG-CC-PVTZ AUX)
    Blend: AUG-CC-PVTZ-RI
	 Reference Energy          =    -308.2879027674287045 [Eh]
	 Singles Energy            =      -0.0000000000000000 [Eh]
	 Same-Spin Energy          =      -0.2998580932675703 [Eh]
	 Opposite-Spin Energy      =      -1.0407445585426836 [Eh]
	 Correlation Energy        =      -1.3406026518102538 [Eh]
	 Total Energy              =    -309.6285054192389339 [Eh]

	 ================> DF-SCS-MP2 Energies <==================
	-----------------------------------------------------------
	 SCS Same-Spin Scale       =       0.3333333333333333 [-]
	 SCS Opposite-Spin Scale   =       1.2000000000000000 [-]
	 SCS Same-Spin Energy      =      -0.0999526977558568 [Eh]
	 SCS Opposite-Spin Energy  =      -1.2488934702512202 [Eh]
	 SCS Correlation Energy    =      -1.3488461680070769 [Eh]
	 SCS Total Energy          =    -309.6367489354357758 [Eh]
	-----------------------------------------------------------

*** Psi4 exiting successfully. Buy a developer a beer!
