                               Psi4 1.9.1 release

  ==> Input File <==

--------------------------------------------------------------------------
MEMORY 10 GB

molecule dimer {
0 1
C   -1.732810  -1.268731  -0.367624
C   -2.069534  -0.138921   0.571733
O   -2.634802   0.966272  -0.094040
H   -2.064545   1.201880  -0.830910
H   -1.322067  -2.124778   0.172076
H   -0.981882  -0.951469  -1.099656
H   -2.619791  -1.594560  -0.914044
H   -1.174693   0.160376   1.139728
H   -2.812332  -0.457922   1.307278
--
0 1
C    1.398325   1.156271  -0.143975
C    1.794865  -0.291953   0.001437
O    3.176624  -0.455459   0.209650
H    3.644650  -0.053235  -0.526357
H    0.314612   1.263583  -0.241364
H    1.857981   1.602125  -1.031019
H    1.717921   1.730622   0.727399
H    1.455032  -0.869471  -0.871841
H    1.305465  -0.733649   0.874407

units ang
no_reorient
no_com
symmetry c1
}

set {
basis        aug-cc-pVTZ
scf_type     df
}

energy("mp2", bsse_type="cp")
--------------------------------------------------------------------------

                               Psi4 1.9.1 release
    Molecular point group: c1
  Charge       = 0
  Multiplicity = 1
  Basis Set: AUG-CC-PVTZ
    Blend: AUG-CC-PVTZ
  Basis Set: (AUG-CC-PVTZ AUX)
    Blend: AUG-CC-PVTZ-JKFIT
  @DF-RHF Final Energy:  -154.14512132416363
    Total Energy =                       -154.1451213241636253
 Dipole X            :       -104.0115911          103.6851019           -0.3264892
 Dipole Y            :         -8.1190047            8.4701512            0.3511465
 Dipole Z            :         -0.0517484           -0.4663901           -0.5181384
 Magnitude           :                                                    0.7059508
  Basis Set: (AUG-CC-PVTZ AUX)
    Blend: AUG-CC-PVTZ-RI
	 Reference Energy          =    -154.1451213241636253 [Eh]
	 Singles Energy            =      -0.0000000000000000 [Eh]
	 Same-Spin Energy          =      -0.1481989009039062 [Eh]
	 Opposite-Spin Energy      =      -0.5184158719498385 [Eh]
	 Correlation Energy        =      -0.6666147728537447 [Eh]
	 Total Energy              =    -154.8117360970173593 [Eh]
	 SCS Total Energy          =    -154.8166200041380591 [Eh]
                               Psi4 1.9.1 release
    Molecular point group: c1
  Multiplicity = 1
  Basis Set: AUG-CC-PVTZ
    Blend: AUG-CC-PVTZ
  Basis Set: (AUG-CC-PVTZ AUX)
    Blend: AUG-CC-PVTZ-JKFIT
  @DF-RHF Final Energy:  -154.14497992301565
    Total Energy =                       -154.1449799230156543
  Basis Set: (AUG-CC-PVTZ AUX)
	 Singles Energy            =      -0.0000000000000000 [Eh]
	 Same-Spin Energy          =      -0.1482368875937913 [Eh]
	 Opposite-Spin Energy      =      -0.5184480762424138 [Eh]
	 Correlation Energy        =      -0.6666849638362051 [Eh]
	 Total Energy              =    -154.8116648868518723 [Eh]
	 SCS Total Energy          =    -154.8165299103711448 [Eh]
                               Psi4 1.9.1 release
    Molecular point group: c1

    Geometry (in Bohr), charge = 0, multiplicity = 1:

       Center              X                  Y                   Z               Mass
    ------------   -----------------  -----------------  -----------------  -----------------
         C           -3.274536327455    -2.397554116878    -0.694708677145    12.000000000000
         C           -3.910852467323    -0.262522643075     1.080418786886    12.000000000000
         O           -4.979054174809     1.825989442698    -0.177709844838    15.994914619570
         H           -3.901424623683     2.271224035665    -1.570192334904     1.007825032230
         H           -2.498344549506    -4.015248497398     0.325176512764     1.007825032230
         H           -1.855488067517    -1.798015826863    -2.078048672216     1.007825032230
         H           -4.950687495939    -3.013281690610    -1.727292826618     1.007825032230
         H           -2.219848051492     0.303066717096     2.153773777516     1.007825032230
         H           -5.314537253861    -0.865347166822     2.470397389836     1.007825032230
         C            2.642451284381     2.185035516809    -0.272073318913    12.000000000000
         C            3.391803282170    -0.551711211506     0.002715536442    12.000000000000
         O            6.002949363556    -0.860692771375     0.396181082202    15.994914619570
         H            6.887390323150    -0.100599570289    -0.994670574218     1.007825032230
         H            0.594530515783     2.387825806784    -0.456111856545     1.007825032230
         H            3.511075236304     3.027577468749    -1.948343540143     1.007825032230
         H            3.246400195173     3.270401606692     1.374584893932     1.007825032230
         H            2.749611983777    -1.643062064028    -1.647540714945     1.007825032230
         H            2.466971316371    -1.386395682216     1.652389752183     1.007825032230

  Charge       = 0
  Multiplicity = 1
  Basis Set: AUG-CC-PVTZ
    Blend: AUG-CC-PVTZ
  Basis Set: (AUG-CC-PVTZ AUX)
    Blend: AUG-CC-PVTZ-JKFIT

    Orbital Energies [Eh]
    ---------------------

    Doubly Occupied:

       1A    -20.560795     2A    -20.559549     3A    -11.279527
       4A    -11.276597     5A    -11.224960     6A    -11.222503
       7A     -1.368534     8A     -1.366701     9A     -1.023043
      10A     -1.016617    11A     -0.855820    12A     -0.852623
      13A     -0.694015    14A     -0.691029    15A     -0.635358
      16A     -0.629577    17A     -0.618984    18A     -0.616012
      19A     -0.550210    20A     -0.547519    21A     -0.533533
      22A     -0.529137    23A     -0.488226    24A     -0.484792
      25A     -0.448216    26A     -0.445436

  @DF-RHF Final Energy:  -308.28666300922583

   => Energetics <=

    Nuclear Repulsion Energy =            246.8864460660516613
    One-Electron Energy =                -909.3075903617929043
    Two-Electron Energy =                 354.1344812865153813
    Total Energy =                       -308.2866630092258333
 Dipole X            :          0.2736017            0.0000057            0.2736074
 Dipole Y            :         -0.0382923            0.0000038           -0.0382886
 Dipole Z            :         -0.6690387            0.0000057           -0.6690330
 Magnitude           :                                                    0.7238316
  Basis Set: (AUG-CC-PVTZ AUX)
    Blend: AUG-CC-PVTZ-RI
	 Reference Energy          =    -308.2866630092258333 [Eh]
	 Singles Energy            =      -0.0000000000000000 [Eh]
	 Same-Spin Energy          =      -0.2988463284588851 [Eh]
	 Opposite-Spin Energy      =      -1.0394035019844021 [Eh]
	 Correlation Energy        =      -1.3382498304432873 [Eh]
	 Total Energy              =    -309.6249128396690935 [Eh]

	 ================> DF-SCS-MP2 Energies <==================
	-----------------------------------------------------------
	 SCS Same-Spin Scale       =       0.3333333333333333 [-]
	 SCS Opposite-Spin Scale   =       1.2000000000000000 [-]
	 SCS Same-Spin Energy      =      -0.0996154428196284 [Eh]
	 SCS Opposite-Spin Energy  =      -1.2472842023812825 [Eh]
	 SCS Correlation Energy    =      -1.3468996452009108 [Eh]
	 SCS Total Energy          =    -309.6335626544267257 [Eh]
	-----------------------------------------------------------

*** Psi4 exiting successfully. Buy a developer a beer!
