                               Psi4 1.9.1 release

  ==> Input File <==

--------------------------------------------------------------------------
MEMORY 10 GB

molecule dimer {
0 1
C   -1.287673   1.107348  -0.161796
C   -1.771164  -0.320131  -0.207370
O   -3.119167  -0.452822   0.179568
H   -3.222451  -0.056888   1.048504
H   -0.253344   1.189665  -0.507969
H   -1.328025   1.495824   0.861721
H   -1.916942   1.744166  -0.786715
H   -1.120210  -0.961277   0.408171
H   -1.713170  -0.709417  -1.227751
--
0 1
C    1.828783  -1.317613  -0.274810
C    2.034651  -0.103874   0.586182
O    2.236267   1.002002  -0.266674
H    2.411434   1.781883   0.263575
H    1.643646  -2.202420   0.336516
H    2.707555  -1.500500  -0.895422
H    0.972858  -1.172822  -0.937995
H    2.898203  -0.250761   1.249946
H    1.156065   0.054726   1.231028

units ang
no_reorient
no_com
symmetry c1
}

set {
basis        aug-cc-pVTZ
scf_type     df
}

energy("mp2", bsse_type="cp")
--------------------------------------------------------------------------

                               Psi4 1.9.1 release
    Molecular point group: c1
  Charge       = 0
  Multiplicity = 1
  Basis Set: AUG-CC-PVTZ
    Blend: AUG-CC-PVTZ
  Basis Set: (AUG-CC-PVTZ AUX)
    Blend: AUG-CC-PVTZ-JKFIT
  @DF-RHF Final Energy:  -154.14563714325197
    Total Energy =                       -154.1456371432519745
 Dipole X            :        -99.8683118           99.8918697            0.0235579
 Dipole Y            :          7.1909644           -7.1862505            0.0047139
 Dipole Z            :         -1.2008905            1.8566332            0.6557428
 Magnitude           :                                                    0.6561827
  Basis Set: (AUG-CC-PVTZ AUX)
    Blend: AUG-CC-PVTZ-RI
	 Reference Energy          =    -154.1456371432519745 [Eh]
	 Singles Energy            =      -0.0000000000000000 [Eh]
	 Same-Spin Energy          =      -0.1481538808615331 [Eh]
	 Opposite-Spin Energy      =      -0.5184494837060811 [Eh]
	 Correlation Energy        =      -0.6666033645676142 [Eh]
	 Total Energy              =    -154.8122405078195811 [Eh]
	 SCS Total Energy          =    -154.8171611506531065 [Eh]
                               Psi4 1.9.1 release
    Molecular point group: c1
  Multiplicity = 1
  Basis Set: AUG-CC-PVTZ
    Blend: AUG-CC-PVTZ
  Basis Set: (AUG-CC-PVTZ AUX)
    Blend: AUG-CC-PVTZ-JKFIT
  @DF-RHF Final Energy:  -154.14500942021886
    Total Energy =                       -154.1450094202188552
  Basis Set: (AUG-CC-PVTZ AUX)
	 Singles Energy            =      -0.0000000000000000 [Eh]
	 Same-Spin Energy          =      -0.1482290658988635 [Eh]
	 Opposite-Spin Energy      =      -0.5185563470107291 [Eh]
	 Correlation Energy        =      -0.6667854129095925 [Eh]
	 Total Energy              =    -154.8117948331284595 [Eh]
	 SCS Total Energy          =    -154.8166867252646739 [Eh]
                               Psi4 1.9.1 release
    Molecular point group: c1

    Geometry (in Bohr), charge = 0, multiplicity = 1:

       Center              X                  Y                   Z               Mass
    ------------   -----------------  -----------------  -----------------  -----------------
         C           -2.433349309147     2.092584445573    -0.305750128195    12.000000000000
         C           -3.347014883270    -0.604959914269    -0.391872506636    12.000000000000
         O           -5.894371369566    -0.855709563582     0.339334340896    15.994914619570
         H           -6.089549842708    -0.107502739825     1.981385401447     1.007825032230
         H           -0.478750775528     2.248141031043    -0.959922290223     1.007825032230
         H           -2.509603537761     2.826697691887     1.628416686556     1.007825032230
         H           -3.622495378387     3.295996057335    -1.486675888790     1.007825032230
         H           -2.116890102999    -1.816550260702     0.771331402354     1.007825032230
         H           -3.237422106351    -1.340603838744    -2.320113140257     1.007825032230
         C            3.455899012893    -2.489927709343    -0.519315636537    12.000000000000
         C            3.844933150889    -0.196293411556     1.107723439673    12.000000000000
         O            4.225932173399     1.893509357161    -0.503940824780    15.994914619570
         H            4.556949829617     3.367270857609     0.498084563518     1.007825032230
         H            3.106040787204    -4.161970613231     0.635923076835     1.007825032230
         H            5.116537419614    -2.835534051249    -1.692102346710     1.007825032230
         H            1.838435178961    -2.216312373912    -1.772553657049     1.007825032230
         H            5.476809925980    -0.473869612946     2.362055611612     1.007825032230
         H            2.184646233227     0.103417151942     2.326305772770     1.007825032230

  Charge       = 0
  Multiplicity = 1
  Basis Set: AUG-CC-PVTZ
    Blend: AUG-CC-PVTZ
  Basis Set: (AUG-CC-PVTZ AUX)
    Blend: AUG-CC-PVTZ-JKFIT

    Orbital Energies [Eh]
    ---------------------

    Doubly Occupied:

       1A    -20.562713     2A    -20.552971     3A    -11.279671
       4A    -11.270155     5A    -11.215863     6A    -11.211244
       7A     -1.369599     8A     -1.360128     9A     -1.020888
      10A     -1.009187    11A     -0.845349    12A     -0.838898
      13A     -0.710692    14A     -0.684572    15A     -0.655667
      16A     -0.620573    17A     -0.608123    18A     -0.580730
      19A     -0.540404    20A     -0.538160    21A     -0.533352
      22A     -0.517264    23A     -0.495338    24A     -0.477783
      25A     -0.446618    26A     -0.438903

  @DF-RHF Final Energy:  -308.28792006289962

   => Energetics <=

    Nuclear Repulsion Energy =            249.5716153372792405
    One-Electron Energy =                -914.9493818373365457
    Two-Electron Energy =                 357.0898464371576893
    Total Energy =                       -308.2879200628996159
 Dipole X            :          0.6493297            0.0000019            0.6493316
 Dipole Y            :          0.3420606           -0.0000019            0.3420587
 Dipole Z            :          0.9548818           -0.0000057            0.9548762
 Magnitude           :                                                    1.2043356
  Basis Set: (AUG-CC-PVTZ AUX)
    Blend: AUG-CC-PVTZ-RI
	 Reference Energy          =    -308.2879200628996159 [Eh]
	 Singles Energy            =      -0.0000000000000000 [Eh]
	 Same-Spin Energy          =      -0.2991094694208324 [Eh]
	 Opposite-Spin Energy      =      -1.0396785059059506 [Eh]
	 Correlation Energy        =      -1.3387879753267828 [Eh]
	 Total Energy              =    -309.6267080382264112 [Eh]

	 ================> DF-SCS-MP2 Energies <==================
	-----------------------------------------------------------
	 SCS Same-Spin Scale       =       0.3333333333333333 [-]
	 SCS Opposite-Spin Scale   =       1.2000000000000000 [-]
	 SCS Same-Spin Energy      =      -0.0997031564736108 [Eh]
	 SCS Opposite-Spin Energy  =      -1.2476142070871405 [Eh]
	 SCS Correlation Energy    =      -1.3473173635607514 [Eh]
	 SCS Total Energy          =    -309.6352374264603782 [Eh]
	-----------------------------------------------------------

*** Psi4 exiting successfully. Buy a developer a beer!
