                               Psi4 1.9.1 release

  ==> Input File <==

--------------------------------------------------------------------------
MEMORY 10 GB

molecule dimer {
0 1
C   -2.047742   1.200587  -0.071445
C   -2.243318  -0.219666  -0.521783
O   -1.615977  -1.063864   0.419499
H   -1.731882  -1.977182   0.150940
H   -2.536756   1.896868  -0.754295
H   -0.984032   1.446270  -0.031153
H   -2.464672   1.343588   0.927225
H   -1.812160  -0.360768  -1.523832
H   -3.316117  -0.447358  -0.597375
--
0 1
C    1.488247   0.250942   1.173895
C    1.616273  -0.255164  -0.239503
O    2.892363  -0.020660  -0.792010
H    3.090590   0.914597  -0.700112
H    0.503617   0.009156   1.578517
H    1.610407   1.338850   1.210501
H    2.253336  -0.194460   1.813035
H    0.827640   0.184015  -0.870042
H    1.468182  -1.337578  -0.270308

units ang
no_reorient
no_com
symmetry c1
}

set {
basis        aug-cc-pVTZ
scf_type     df
}

energy("mp2", bsse_type="cp")
--------------------------------------------------------------------------

                               Psi4 1.9.1 release
    Molecular point group: c1
  Charge       = 0
  Multiplicity = 1
  Basis Set: AUG-CC-PVTZ
    Blend: AUG-CC-PVTZ
  Basis Set: (AUG-CC-PVTZ AUX)
    Blend: AUG-CC-PVTZ-JKFIT
  @DF-RHF Final Energy:  -154.14500548080036
    Total Energy =                       -154.1450054808003642
 Dipole X            :        -97.7923470           97.3583045           -0.4340425
 Dipole Y            :         -0.9116688            1.3681012            0.4564324
 Dipole Z            :         -3.4982261            3.8396646            0.3414385
 Magnitude           :                                                    0.7164521
  Basis Set: (AUG-CC-PVTZ AUX)
    Blend: AUG-CC-PVTZ-RI
	 Reference Energy          =    -154.1450054808003642 [Eh]
	 Singles Energy            =      -0.0000000000000000 [Eh]
	 Same-Spin Energy          =      -0.1482326058887046 [Eh]
	 Opposite-Spin Energy      =      -0.5184158242063859 [Eh]
	 Correlation Energy        =      -0.6666484300950906 [Eh]
	 Total Energy              =    -154.8116539108954441 [Eh]
	 SCS Total Energy          =    -154.8165153384775863 [Eh]
                               Psi4 1.9.1 release
    Molecular point group: c1
  Multiplicity = 1
  Basis Set: AUG-CC-PVTZ
    Blend: AUG-CC-PVTZ
  Basis Set: (AUG-CC-PVTZ AUX)
    Blend: AUG-CC-PVTZ-JKFIT
  @DF-RHF Final Energy:  -154.14566789706186
    Total Energy =                       -154.1456678970618555
  Basis Set: (AUG-CC-PVTZ AUX)
	 Singles Energy            =      -0.0000000000000000 [Eh]
	 Same-Spin Energy          =      -0.1481309659637054 [Eh]
	 Opposite-Spin Energy      =      -0.5182394932327061 [Eh]
	 Correlation Energy        =      -0.6663704591964116 [Eh]
	 Total Energy              =    -154.8120383562582560 [Eh]
	 SCS Total Energy          =    -154.8169322775956687 [Eh]
                               Psi4 1.9.1 release
    Molecular point group: c1

    Geometry (in Bohr), charge = 0, multiplicity = 1:

       Center              X                  Y                   Z               Mass
    ------------   -----------------  -----------------  -----------------  -----------------
         C           -3.869671555597     2.268780619785    -0.135011483033    12.000000000000
         C           -4.239256632310    -0.415108579075    -0.986026966920    12.000000000000
         O           -3.053753955039    -2.010411594734     0.792738219903    15.994914619570
         H           -3.272782661610    -3.736332480185     0.285235261377     1.007825032230
         H           -4.793774087112     3.584561016145    -1.425410967802     1.007825032230
         H           -1.859550978687     2.733054203466    -0.058870637986     1.007825032230
         H           -4.657555069084     2.539013345452     1.752201306678     1.007825032230
         H           -3.424486095510    -0.681752714829    -2.879625141209     1.007825032230
         H           -6.266552929975    -0.845384100033    -1.128875144195     1.007825032230
         C            2.812379237034     0.474211653375     2.218340050044    12.000000000000
         C            3.054313313972    -0.482190077076    -0.452595076226    12.000000000000
         O            5.465773925408    -0.039041741752    -1.496681988624    15.994914619570
         H            5.840368666079     1.728337845165    -1.323019937147     1.007825032230
         H            0.951698202125     0.017302332405     2.982964814379     1.007825032230
         H            3.043228180520     2.530059823069     2.287515364593     1.007825032230
         H            4.258187908635    -0.367476142357     3.426139605869     1.007825032230
         H            1.564012930474     0.347737952976    -1.644141097646     1.007825032230
         H            2.774461882327    -2.527656091438    -0.510808089520     1.007825032230

  Charge       = 0
  Multiplicity = 1
  Basis Set: AUG-CC-PVTZ
    Blend: AUG-CC-PVTZ
  Basis Set: (AUG-CC-PVTZ AUX)
    Blend: AUG-CC-PVTZ-JKFIT

    Orbital Energies [Eh]
    ---------------------

    Doubly Occupied:

       1A    -20.562345     2A    -20.547985     3A    -11.279490
       4A    -11.263639     5A    -11.216587     6A    -11.205130
       7A     -1.369288     8A     -1.354658     9A     -1.020530
      10A     -1.003624    11A     -0.839992    12A     -0.838116
      13A     -0.710704    14A     -0.678684    15A     -0.651742
      16A     -0.616002    17A     -0.604585    18A     -0.581170
      19A     -0.540613    20A     -0.534196    21A     -0.529368
      22A     -0.515777    23A     -0.494012    24A     -0.472104
      25A     -0.446682    26A     -0.433061

  @DF-RHF Final Energy:  -308.28898475914804

   => Energetics <=

    Nuclear Repulsion Energy =            250.9761719945019820
    One-Electron Energy =                -917.9101531639694258
    Two-Electron Energy =                 358.6449964103193793
    Total Energy =                       -308.2889847591480361
 Dipole X            :         -0.8836000            0.0000019           -0.8835981
 Dipole Y            :          0.2228680            0.0000000            0.2228680
 Dipole Z            :         -0.1737119           -0.0000057           -0.1737176
 Magnitude           :                                                    0.9276818
  Basis Set: (AUG-CC-PVTZ AUX)
    Blend: AUG-CC-PVTZ-RI
	 Reference Energy          =    -308.2889847591480361 [Eh]
	 Singles Energy            =      -0.0000000000000000 [Eh]
	 Same-Spin Energy          =      -0.2987614737267735 [Eh]
	 Opposite-Spin Energy      =      -1.0389988791962002 [Eh]
	 Correlation Energy        =      -1.3377603529229736 [Eh]
	 Total Energy              =    -309.6267451120710348 [Eh]

	 ================> DF-SCS-MP2 Energies <==================
	-----------------------------------------------------------
	 SCS Same-Spin Scale       =       0.3333333333333333 [-]
	 SCS Opposite-Spin Scale   =       1.2000000000000000 [-]
	 SCS Same-Spin Energy      =      -0.0995871579089245 [Eh]
	 SCS Opposite-Spin Energy  =      -1.2467986550354402 [Eh]
	 SCS Correlation Energy    =      -1.3463858129443647 [Eh]
	 SCS Total Energy          =    -309.6353705720924268 [Eh]
	-----------------------------------------------------------

*** Psi4 exiting successfully. Buy a developer a beer!
