                               Psi4 1.9.1 release

  ==> Input File <==

--------------------------------------------------------------------------
MEMORY 10 GB

molecule dimer {
0 1
C    1.233757   0.958573   0.577689
C    1.835635  -0.327214   0.088019
O    3.078182  -0.036974  -0.510572
H    3.484073  -0.853727  -0.806230
H    0.274099   0.763320   1.060038
H    1.077092   1.648204  -0.254963
H    1.899837   1.441573   1.294739
H    1.154875  -0.805792  -0.634716
H    1.954699  -1.027544   0.928295
--
0 1
C   -2.639490   0.875680  -0.242922
C   -1.910773  -0.403057  -0.543748
O   -1.556196  -1.000904   0.685198
H   -1.097021  -1.825559   0.512729
H   -2.944203   1.375097  -1.163798
H   -1.998952   1.555755   0.322279
H   -3.530574   0.675281   0.354545
H   -1.015306  -0.193014  -1.149039
H   -2.549285  -1.074466  -1.135123

units ang
no_reorient
no_com
symmetry c1
}

set {
basis        aug-cc-pVTZ
scf_type     df
}

energy("mp2", bsse_type="cp")
--------------------------------------------------------------------------

                               Psi4 1.9.1 release
    Molecular point group: c1
  Charge       = 0
  Multiplicity = 1
  Basis Set: AUG-CC-PVTZ
    Blend: AUG-CC-PVTZ
  Basis Set: (AUG-CC-PVTZ AUX)
    Blend: AUG-CC-PVTZ-JKFIT
  @DF-RHF Final Energy:  -154.14564909695807
    Total Energy =                       -154.1456490969580670
 Dipole X            :        100.0626327          -99.9409762            0.1216566
 Dipole Y            :          8.5657398           -8.8031002           -0.2373604
 Dipole Z            :          2.2275043           -2.8286233           -0.6011190
 Magnitude           :                                                    0.6576354
  Basis Set: (AUG-CC-PVTZ AUX)
    Blend: AUG-CC-PVTZ-RI
	 Reference Energy          =    -154.1456490969580670 [Eh]
	 Singles Energy            =      -0.0000000000000000 [Eh]
	 Same-Spin Energy          =      -0.1481450724200299 [Eh]
	 Opposite-Spin Energy      =      -0.5183493959040267 [Eh]
	 Correlation Energy        =      -0.6664944683240566 [Eh]
	 Total Energy              =    -154.8121435652821276 [Eh]
	 SCS Total Energy          =    -154.8170500628495745 [Eh]
                               Psi4 1.9.1 release
    Molecular point group: c1
  Multiplicity = 1
  Basis Set: AUG-CC-PVTZ
    Blend: AUG-CC-PVTZ
  Basis Set: (AUG-CC-PVTZ AUX)
    Blend: AUG-CC-PVTZ-JKFIT
  @DF-RHF Final Energy:  -154.14557803205889
    Total Energy =                       -154.1455780320588929
  Basis Set: (AUG-CC-PVTZ AUX)
	 Singles Energy            =      -0.0000000000000000 [Eh]
	 Same-Spin Energy          =      -0.1481156965351250 [Eh]
	 Opposite-Spin Energy      =      -0.5181279834202379 [Eh]
	 Correlation Energy        =      -0.6662436799553629 [Eh]
	 Total Energy              =    -154.8118217120142504 [Eh]
	 SCS Total Energy          =    -154.8167035110082281 [Eh]
                               Psi4 1.9.1 release
    Molecular point group: c1

    Geometry (in Bohr), charge = 0, multiplicity = 1:

       Center              X                  Y                   Z               Mass
    ------------   -----------------  -----------------  -----------------  -----------------
         C            2.331462835366     1.811440441258     1.091673995690    12.000000000000
         C            3.468847416305    -0.618344844416     0.166331803837    12.000000000000
         O            5.816920944314    -0.069870733763    -0.964841247327    15.994914619570
         H            6.583943771102    -1.613310215909    -1.523553894128     1.007825032230
         H            0.517972041262     1.442465746084     2.003181502578     1.007825032230
         H            2.035408891922     3.114654158884    -0.481810242125     1.007825032230
         H            3.590171613011     2.724178159855     2.446702113949     1.007825032230
         H            2.182397459138    -1.522726194085    -1.199439407446     1.007825032230
         H            3.693845767706    -1.941776741857     1.754223313632     1.007825032230
         C           -4.987913210885     1.654795373541    -0.459056049848    12.000000000000
         C           -3.610837657919    -0.761667342949    -1.027534801265    12.000000000000
         O           -2.940784237533    -1.891434437875     1.294836561711    15.994914619570
         H           -2.073069243876    -3.449806535865     0.968917386580     1.007825032230
         H           -5.563737327751     2.598556725939    -2.199259485356     1.007825032230
         H           -3.777471817936     2.939950868312     0.609019045986     1.007825032230
         H           -6.671817925662     1.276096147725     0.669992949150     1.007825032230
         H           -1.918650273534    -0.364743598379    -2.171369017470     1.007825032230
         H           -4.817450465738    -2.030446471116    -2.145071588708     1.007825032230

  Charge       = 0
  Multiplicity = 1
  Basis Set: AUG-CC-PVTZ
    Blend: AUG-CC-PVTZ
  Basis Set: (AUG-CC-PVTZ AUX)
    Blend: AUG-CC-PVTZ-JKFIT

    Orbital Energies [Eh]
    ---------------------

    Doubly Occupied:

       1A    -20.561030     2A    -20.555281     3A    -11.277343
       4A    -11.272698     5A    -11.213454     6A    -11.203668
       7A     -1.367672     8A     -1.361948     9A     -1.018003
      10A     -1.010694    11A     -0.837297    12A     -0.829751
      13A     -0.709190    14A     -0.703232    15A     -0.654935
      16A     -0.639659    17A     -0.578847    18A     -0.572727
      19A     -0.537722    20A     -0.529734    21A     -0.525369
      22A     -0.520501    23A     -0.492923    24A     -0.486156
      25A     -0.445524    26A     -0.437516

  @DF-RHF Final Energy:  -308.28840536328613

   => Energetics <=

    Nuclear Repulsion Energy =            250.2706530958893154
    One-Electron Energy =                -916.4323661001565142
    Two-Electron Energy =                 357.8733076409810678
    Total Energy =                       -308.2884053632861310
 Dipole X            :         -0.2158091           -0.0000076           -0.2158167
 Dipole Y            :         -0.8167240           -0.0000076           -0.8167316
 Dipole Z            :         -0.4847488           -0.0000151           -0.4847639
 Magnitude           :                                                    0.9739730
  Basis Set: (AUG-CC-PVTZ AUX)
    Blend: AUG-CC-PVTZ-RI
	 Reference Energy          =    -308.2884053632861310 [Eh]
	 Singles Energy            =      -0.0000000000000000 [Eh]
	 Same-Spin Energy          =      -0.2988858560601842 [Eh]
	 Opposite-Spin Energy      =      -1.0390807403670634 [Eh]
	 Correlation Energy        =      -1.3379665964272476 [Eh]
	 Total Energy              =    -309.6263719597133672 [Eh]

	 ================> DF-SCS-MP2 Energies <==================
	-----------------------------------------------------------
	 SCS Same-Spin Scale       =       0.3333333333333333 [-]
	 SCS Opposite-Spin Scale   =       1.2000000000000000 [-]
	 SCS Same-Spin Energy      =      -0.0996286186867281 [Eh]
	 SCS Opposite-Spin Energy  =      -1.2468968884404761 [Eh]
	 SCS Correlation Energy    =      -1.3465255071272042 [Eh]
	 SCS Total Energy          =    -309.6349308704133136 [Eh]
	-----------------------------------------------------------

*** Psi4 exiting successfully. Buy a developer a beer!
