                               Psi4 1.9.1 release

  ==> Input File <==

--------------------------------------------------------------------------
MEMORY 10 GB

molecule dimer {
0 1
C    1.692201   1.096593  -0.243570
C    2.017833  -0.275781   0.291856
O    3.361927  -0.634928   0.075008
H    3.529878  -0.621228  -0.870503
H    0.661999   1.377762  -0.010886
H    1.805984   1.129258  -1.331396
H    2.359686   1.844763   0.188020
H    1.334107  -1.023484  -0.136677
H    1.871548  -0.305065   1.375240
--
0 1
C   -2.530674   1.107506   0.170734
C   -1.786504  -0.182798  -0.065222
O   -2.646477  -1.285557  -0.219769
H   -3.200148  -1.350483   0.562422
H   -1.842928   1.953264   0.245119
H   -3.101236   1.063683   1.103239
H   -3.230324   1.301607  -0.644293
H   -1.062389  -0.355954   0.746376
H   -1.206906  -0.123361  -0.991364

units ang
no_reorient
no_com
symmetry c1
}

set {
basis        aug-cc-pVTZ
scf_type     df
}

energy("mp2", bsse_type="cp")
--------------------------------------------------------------------------

                               Psi4 1.9.1 release
    Molecular point group: c1
  Charge       = 0
  Multiplicity = 1
  Basis Set: AUG-CC-PVTZ
    Blend: AUG-CC-PVTZ
  Basis Set: (AUG-CC-PVTZ AUX)
    Blend: AUG-CC-PVTZ-JKFIT
  @DF-RHF Final Energy:  -154.14512039111082
    Total Energy =                       -154.1451203911108223
 Dipole X            :        114.7592293         -114.7419310            0.0172983
 Dipole Y            :          4.7202876           -4.2470688            0.4732188
 Dipole Z            :          0.7217448           -0.1957397            0.5260051
 Magnitude           :                                                    0.7077547
  Basis Set: (AUG-CC-PVTZ AUX)
    Blend: AUG-CC-PVTZ-RI
	 Reference Energy          =    -154.1451203911108223 [Eh]
	 Singles Energy            =      -0.0000000000000000 [Eh]
	 Same-Spin Energy          =      -0.1481822173956081 [Eh]
	 Opposite-Spin Energy      =      -0.5181702237998694 [Eh]
	 Correlation Energy        =      -0.6663524411954775 [Eh]
	 Total Energy              =    -154.8114728323062934 [Eh]
	 SCS Total Energy          =    -154.8163187321358691 [Eh]
                               Psi4 1.9.1 release
    Molecular point group: c1
  Multiplicity = 1
  Basis Set: AUG-CC-PVTZ
    Blend: AUG-CC-PVTZ
  Basis Set: (AUG-CC-PVTZ AUX)
    Blend: AUG-CC-PVTZ-JKFIT
  @DF-RHF Final Energy:  -154.14514280161683
    Total Energy =                       -154.1451428016168279
  Basis Set: (AUG-CC-PVTZ AUX)
	 Singles Energy            =      -0.0000000000000000 [Eh]
	 Same-Spin Energy          =      -0.1481754784258779 [Eh]
	 Opposite-Spin Energy      =      -0.5182365225429897 [Eh]
	 Correlation Energy        =      -0.6664120009688675 [Eh]
	 Total Energy              =    -154.8115548025857038 [Eh]
	 SCS Total Energy          =    -154.8164184548103890 [Eh]
                               Psi4 1.9.1 release
    Molecular point group: c1

    Geometry (in Bohr), charge = 0, multiplicity = 1:

       Center              X                  Y                   Z               Mass
    ------------   -----------------  -----------------  -----------------  -----------------
         C            3.197796439226     2.072260441094    -0.460280592378    12.000000000000
         C            3.813151736911    -0.521150560605     0.551527908072    12.000000000000
         O            6.353121283782    -1.199840029385     0.141744577218    15.994914619570
         H            6.670502676279    -1.173950781466    -1.645012261389     1.007825032230
         H            1.250996805327     2.603592846063    -0.020571558602     1.007825032230
         H            3.412815146959     2.133988344982    -2.515973804530     1.007825032230
         H            4.459160282077     3.486096836378     0.355306306109     1.007825032230
         H            2.521096852056    -1.934104453788    -0.258282097649     1.007825032230
         H            3.536713150648    -0.576489300463     2.598826956775     1.007825032230
         C           -4.782280772817     2.092883022301     0.322640500304    12.000000000000
         C           -3.376003282035    -0.345438156281    -0.123251717355    12.000000000000
         O           -5.001116727323    -2.429350648665    -0.415303220866    15.994914619570
         H           -6.047403280932    -2.552043007087     1.062823546932     1.007825032230
         H           -3.482629188938     3.691134010716     0.463207778146     1.007825032230
         H           -5.860486690410     2.010069554305     2.084819560924     1.007825032230
         H           -6.104427656493     2.459680752979    -1.217537314550     1.007825032230
         H           -2.007624248699    -0.672655573261     1.410446226615     1.007825032230
         H           -2.280721799172    -0.233118504563    -1.873406450638     1.007825032230

  Charge       = 0
  Multiplicity = 1
  Basis Set: AUG-CC-PVTZ
    Blend: AUG-CC-PVTZ
  Basis Set: (AUG-CC-PVTZ AUX)
    Blend: AUG-CC-PVTZ-JKFIT

    Orbital Energies [Eh]
    ---------------------

    Doubly Occupied:

       1A    -20.559639     2A    -20.556395     3A    -11.278135
       4A    -11.274417     5A    -11.222438     6A    -11.219969
       7A     -1.367357     8A     -1.363739     9A     -1.020393
      10A     -1.014830    11A     -0.853461    12A     -0.849816
      13A     -0.693490    14A     -0.688664    15A     -0.635336
      16A     -0.625072    17A     -0.616632    18A     -0.611199
      19A     -0.548537    20A     -0.546351    21A     -0.532053
      22A     -0.527267    23A     -0.485176    24A     -0.481642
      25A     -0.448659    26A     -0.441945

  @DF-RHF Final Energy:  -308.28816766265624

   => Energetics <=

    Nuclear Repulsion Energy =            240.2812769613342994
    One-Electron Energy =                -896.2136582397466782
    Two-Electron Energy =                 347.6442136157560867
    Total Energy =                       -308.2881676626562353
 Dipole X            :         -0.4804986            0.0000132           -0.4804853
 Dipole Y            :          0.6545706            0.0000038            0.6545744
 Dipole Z            :          0.0466942           -0.0000057            0.0466886
 Magnitude           :                                                    0.8133348
  Basis Set: (AUG-CC-PVTZ AUX)
    Blend: AUG-CC-PVTZ-RI
	 Reference Energy          =    -308.2881676626562353 [Eh]
	 Singles Energy            =      -0.0000000000000000 [Eh]
	 Same-Spin Energy          =      -0.2980417468508861 [Eh]
	 Opposite-Spin Energy      =      -1.0381675010941456 [Eh]
	 Correlation Energy        =      -1.3362092479450318 [Eh]
	 Total Energy              =    -309.6243769106012564 [Eh]

	 ================> DF-SCS-MP2 Energies <==================
	-----------------------------------------------------------
	 SCS Same-Spin Scale       =       0.3333333333333333 [-]
	 SCS Opposite-Spin Scale   =       1.2000000000000000 [-]
	 SCS Same-Spin Energy      =      -0.0993472489502954 [Eh]
	 SCS Opposite-Spin Energy  =      -1.2458010013129746 [Eh]
	 SCS Correlation Energy    =      -1.3451482502632699 [Eh]
	 SCS Total Energy          =    -309.6333159129194996 [Eh]
	-----------------------------------------------------------

*** Psi4 exiting successfully. Buy a developer a beer!
