                               Psi4 1.9.1 release

  ==> Input File <==

--------------------------------------------------------------------------
MEMORY 10 GB

molecule dimer {
0 1
C    2.165693   1.109782   0.597800
C    1.625379  -0.007612  -0.249428
O    2.608149  -1.019857  -0.311632
H    2.236287  -1.780028  -0.762200
H    1.445574   1.927853   0.666720
H    3.091644   1.501729   0.172386
H    2.382092   0.753756   1.606762
H    1.387906   0.369039  -1.256627
H    0.687995  -0.391938   0.175129
--
0 1
C   -1.886541   1.047214  -0.554735
C   -2.631476  -0.043130   0.162031
O   -1.744207  -1.123737   0.353715
H   -2.190204  -1.814812   0.846678
H   -2.536624   1.902102  -0.746393
H   -1.503486   0.682413  -1.509938
H   -1.036417   1.386367   0.041436
H   -3.504681  -0.354492  -0.429202
H   -3.009958   0.329229   1.124577

units ang
no_reorient
no_com
symmetry c1
}

set {
basis        aug-cc-pVTZ
scf_type     df
}

energy("mp2", bsse_type="cp")
--------------------------------------------------------------------------

                               Psi4 1.9.1 release
    Molecular point group: c1
  Charge       = 0
  Multiplicity = 1
  Basis Set: AUG-CC-PVTZ
    Blend: AUG-CC-PVTZ
  Basis Set: (AUG-CC-PVTZ AUX)
    Blend: AUG-CC-PVTZ-JKFIT
  @DF-RHF Final Energy:  -154.14564818342981
    Total Energy =                       -154.1456481834298131
 Dipole X            :        103.0173462         -103.6384918           -0.6211456
 Dipole Y            :          1.6152836           -1.5771371            0.0381465
 Dipole Z            :          0.5884911           -0.3767093            0.2117818
 Magnitude           :                                                    0.6573648
  Basis Set: (AUG-CC-PVTZ AUX)
    Blend: AUG-CC-PVTZ-RI
	 Reference Energy          =    -154.1456481834298131 [Eh]
	 Singles Energy            =      -0.0000000000000000 [Eh]
	 Same-Spin Energy          =      -0.1481114566571618 [Eh]
	 Opposite-Spin Energy      =      -0.5180889617990999 [Eh]
	 Correlation Energy        =      -0.6662004184562618 [Eh]
	 Total Energy              =    -154.8118486018860835 [Eh]
	 SCS Total Energy          =    -154.8167254231411221 [Eh]
                               Psi4 1.9.1 release
    Molecular point group: c1
  Multiplicity = 1
  Basis Set: AUG-CC-PVTZ
    Blend: AUG-CC-PVTZ
  Basis Set: (AUG-CC-PVTZ AUX)
    Blend: AUG-CC-PVTZ-JKFIT
  @DF-RHF Final Energy:  -154.14550657948001
    Total Energy =                       -154.1455065794800134
  Basis Set: (AUG-CC-PVTZ AUX)
	 Singles Energy            =      -0.0000000000000000 [Eh]
	 Same-Spin Energy          =      -0.1481224362818144 [Eh]
	 Opposite-Spin Energy      =      -0.5182849650682276 [Eh]
	 Correlation Energy        =      -0.6664074013500421 [Eh]
	 Total Energy              =    -154.8119139808300417 [Eh]
	 SCS Total Energy          =    -154.8168226829891694 [Eh]
                               Psi4 1.9.1 release
    Molecular point group: c1

    Geometry (in Bohr), charge = 0, multiplicity = 1:

       Center              X                  Y                   Z               Mass
    ------------   -----------------  -----------------  -----------------  -----------------
         C            4.092566641821     2.097184038963     1.129678277799    12.000000000000
         C            3.071521160071    -0.014384595267    -0.471350608021    12.000000000000
         O            4.928687304387    -1.927250417131    -0.588899131929    15.994914619570
         H            4.225969967922    -3.363765415646    -1.440349252824     1.007825032230
         H            2.731738954083     3.643114180142     1.259918202365     1.007825032230
         H            5.842360437415     2.837856524658     0.325762327863     1.007825032230
         H            4.501501485644     1.424392405421     3.036340128793     1.007825032230
         H            2.622762227880     0.697382639613    -2.374680871856     1.007825032230
         H            1.300122125684    -0.740655478160     0.330945846625     1.007825032230
         C           -3.565045814447     1.978947654745    -1.048297222206    12.000000000000
         C           -4.972768945715    -0.081503887791     0.306194213834    12.000000000000
         O           -3.296073536106    -2.123555167044     0.668424476466    15.994914619570
         H           -4.138885718882    -3.429497649194     1.599989536450     1.007825032230
         H           -4.793524643263     3.594451842686    -1.410478351959     1.007825032230
         H           -2.841176773460     1.289573674452    -2.853369286422     1.007825032230
         H           -1.958544281769     2.619853939373     0.078302691734     1.007825032230
         H           -6.622887247096    -0.669892793666    -0.811074232499     1.007825032230
         H           -5.687996269131     0.622152642558     2.125142536989     1.007825032230

  Charge       = 0
  Multiplicity = 1
  Basis Set: AUG-CC-PVTZ
    Blend: AUG-CC-PVTZ
  Basis Set: (AUG-CC-PVTZ AUX)
    Blend: AUG-CC-PVTZ-JKFIT

    Orbital Energies [Eh]
    ---------------------

    Doubly Occupied:

       1A    -20.563711     2A    -20.543983     3A    -11.280095
       4A    -11.257586     5A    -11.217012     6A    -11.201988
       7A     -1.370358     8A     -1.349842     9A     -1.021068
      10A     -1.002960    11A     -0.840698    12A     -0.821179
      13A     -0.712059    14A     -0.690920    15A     -0.652802
      16A     -0.632508    17A     -0.582758    18A     -0.563200
      19A     -0.540506    20A     -0.533046    21A     -0.522976
      22A     -0.514570    23A     -0.498770    24A     -0.474415
      25A     -0.447997    26A     -0.425672

  @DF-RHF Final Energy:  -308.29010685906445

   => Energetics <=

    Nuclear Repulsion Energy =            246.0040218335223301
    One-Electron Energy =                -908.0628977295376671
    Two-Electron Energy =                 353.7687690369509141
    Total Energy =                       -308.2901068590644513
 Dipole X            :         -1.3712794           -0.0000113           -1.3712907
 Dipole Y            :         -0.0420194           -0.0000189           -0.0420383
 Dipole Z            :         -0.0022687           -0.0000000           -0.0022687
 Magnitude           :                                                    1.3719368
  Basis Set: (AUG-CC-PVTZ AUX)
    Blend: AUG-CC-PVTZ-RI
	 Reference Energy          =    -308.2901068590644513 [Eh]
	 Singles Energy            =      -0.0000000000000000 [Eh]
	 Same-Spin Energy          =      -0.2980617963442811 [Eh]
	 Opposite-Spin Energy      =      -1.0381570403231450 [Eh]
	 Correlation Energy        =      -1.3362188366674261 [Eh]
	 Total Energy              =    -309.6263256957318504 [Eh]

	 ================> DF-SCS-MP2 Energies <==================
	-----------------------------------------------------------
	 SCS Same-Spin Scale       =       0.3333333333333333 [-]
	 SCS Opposite-Spin Scale   =       1.2000000000000000 [-]
	 SCS Same-Spin Energy      =      -0.0993539321147604 [Eh]
	 SCS Opposite-Spin Energy  =      -1.2457884483877739 [Eh]
	 SCS Correlation Energy    =      -1.3451423805025342 [Eh]
	 SCS Total Energy          =    -309.6352492395669742 [Eh]
	-----------------------------------------------------------

*** Psi4 exiting successfully. Buy a developer a beer!
