                               Psi4 1.9.1 release

  ==> Input File <==

--------------------------------------------------------------------------
MEMORY 10 GB

molecule dimer {
0 1
C   -2.219378  -0.482866  -0.879492
C   -1.884927   0.597954   0.119893
O   -1.168636   0.110009   1.223636
H   -0.393754  -0.368094   0.890272
H   -2.806168  -0.086547  -1.711379
H   -2.791282  -1.281460  -0.402137
H   -1.303941  -0.920213  -1.288613
H   -2.799944   1.047955   0.516930
H   -1.333507   1.409273  -0.383592
--
0 1
C    1.708509   1.144845  -0.393781
C    2.271713  -0.196633  -0.021474
O    1.190503  -1.109310   0.076378
H    1.515485  -1.971016   0.344888
H    2.504965   1.881647  -0.504739
H    1.015425   1.495826   0.374166
H    1.165512   1.079345  -1.339514
H    2.809553  -0.133864   0.933475
H    2.987220  -0.538243  -0.780743

units ang
no_reorient
no_com
symmetry c1
}

set {
basis        aug-cc-pVTZ
scf_type     df
}

energy("mp2", bsse_type="cp")
--------------------------------------------------------------------------

                               Psi4 1.9.1 release
    Molecular point group: c1
  Charge       = 0
  Multiplicity = 1
  Basis Set: AUG-CC-PVTZ
    Blend: AUG-CC-PVTZ
  Basis Set: (AUG-CC-PVTZ AUX)
    Blend: AUG-CC-PVTZ-JKFIT
  @DF-RHF Final Energy:  -154.14567340221384
    Total Energy =                       -154.1456734022138448
 Dipole X            :        -85.1626130           85.8002104            0.6375973
 Dipole Y            :          2.4686651           -2.5917839           -0.1231189
 Dipole Z            :          5.5088490           -5.3913376            0.1175114
 Magnitude           :                                                    0.6599224
  Basis Set: (AUG-CC-PVTZ AUX)
    Blend: AUG-CC-PVTZ-RI
	 Reference Energy          =    -154.1456734022138448 [Eh]
	 Singles Energy            =      -0.0000000000000000 [Eh]
	 Same-Spin Energy          =      -0.1481666312704375 [Eh]
	 Opposite-Spin Energy      =      -0.5186017984246734 [Eh]
	 Correlation Energy        =      -0.6667684296951109 [Eh]
	 Total Energy              =    -154.8124418319089557 [Eh]
	 SCS Total Energy          =    -154.8173844374136081 [Eh]
                               Psi4 1.9.1 release
    Molecular point group: c1
  Multiplicity = 1
  Basis Set: AUG-CC-PVTZ
    Blend: AUG-CC-PVTZ
  Basis Set: (AUG-CC-PVTZ AUX)
    Blend: AUG-CC-PVTZ-JKFIT
  @DF-RHF Final Energy:  -154.14457099029130
    Total Energy =                       -154.1445709902912995
  Basis Set: (AUG-CC-PVTZ AUX)
	 Singles Energy            =      -0.0000000000000000 [Eh]
	 Same-Spin Energy          =      -0.1483471925766036 [Eh]
	 Opposite-Spin Energy      =      -0.5189514861344587 [Eh]
	 Correlation Energy        =      -0.6672986787110624 [Eh]
	 Total Energy              =    -154.8118696690023626 [Eh]
	 SCS Total Energy          =    -154.8167618378448651 [Eh]
                               Psi4 1.9.1 release
    Molecular point group: c1

    Geometry (in Bohr), charge = 0, multiplicity = 1:

       Center              X                  Y                   Z               Mass
    ------------   -----------------  -----------------  -----------------  -----------------
         C           -4.194016588866    -0.912484495295    -1.661999009531    12.000000000000
         C           -3.561995796481     1.129969295622     0.226564934360    12.000000000000
         O           -2.208401980351     0.207886881335     2.312336917251    15.994914619570
         H           -0.744087220804    -0.695596848424     1.682370257164     1.007825032230
         H           -5.302888982024    -0.163550126980    -3.234037606860     1.007825032230
         H           -5.274758518920    -2.421608440729    -0.759928794913     1.007825032230
         H           -2.464091373756    -1.738950547086    -2.435125651705     1.007825032230
         H           -5.291127326619     1.980347941804     0.976856126033     1.007825032230
         H           -2.519963016381     2.663140006002    -0.724883823917     1.007825032230
         C            3.228614092880     2.163443506100    -0.744138243409    12.000000000000
         C            4.292915405642    -0.371582517227    -0.040579978818    12.000000000000
         O            2.249724621536    -2.096292088232     0.144333502010    15.994914619570
         H            2.863851597239    -3.724680428895     0.651743863957     1.007825032230
         H            4.733697803857     3.555797494789    -0.953818474837     1.007825032230
         H            1.918875150943     2.826701471339     0.707071265458     1.007825032230
         H            2.202498475935     2.039666444882    -2.531314601217     1.007825032230
         H            5.309285704958    -0.252966298058     1.764012094962     1.007825032230
         H            5.645027676490    -1.017131858945    -1.475390444368     1.007825032230

  Charge       = 0
  Multiplicity = 1
  Basis Set: AUG-CC-PVTZ
    Blend: AUG-CC-PVTZ
  Basis Set: (AUG-CC-PVTZ AUX)
    Blend: AUG-CC-PVTZ-JKFIT

    Orbital Energies [Eh]
    ---------------------

    Doubly Occupied:

       1A    -20.578133     2A    -20.525736     3A    -11.287507
       4A    -11.254859     5A    -11.219253     6A    -11.200822
       7A     -1.384187     8A     -1.336428     9A     -1.027324
      10A     -0.995093    11A     -0.847928    12A     -0.829063
      13A     -0.725121    14A     -0.671853    15A     -0.655269
      16A     -0.606261    17A     -0.603778    18A     -0.584532
      19A     -0.544536    20A     -0.537759    21A     -0.524496
      22A     -0.510545    23A     -0.502198    24A     -0.462601
      25A     -0.454300    26A     -0.418224

  @DF-RHF Final Energy:  -308.29382698300924

   => Energetics <=

    Nuclear Repulsion Energy =            260.5440257218178317
    One-Electron Energy =                -937.1000962578289091
    Two-Electron Energy =                 368.2622435530017810
    Total Energy =                       -308.2938269830092395
 Dipole X            :          1.0775077            0.0000038            1.0775115
 Dipole Y            :         -0.3021553            0.0000019           -0.3021534
 Dipole Z            :         -0.5762211            0.0000038           -0.5762173
 Magnitude           :                                                    1.2587113
  Basis Set: (AUG-CC-PVTZ AUX)
    Blend: AUG-CC-PVTZ-RI
	 Reference Energy          =    -308.2938269830092395 [Eh]
	 Singles Energy            =      -0.0000000000000000 [Eh]
	 Same-Spin Energy          =      -0.3001150267603241 [Eh]
	 Opposite-Spin Energy      =      -1.0403870235459576 [Eh]
	 Correlation Energy        =      -1.3405020503062817 [Eh]
	 Total Energy              =    -309.6343290333155096 [Eh]

	 ================> DF-SCS-MP2 Energies <==================
	-----------------------------------------------------------
	 SCS Same-Spin Scale       =       0.3333333333333333 [-]
	 SCS Opposite-Spin Scale   =       1.2000000000000000 [-]
	 SCS Same-Spin Energy      =      -0.1000383422534414 [Eh]
	 SCS Opposite-Spin Energy  =      -1.2484644282551491 [Eh]
	 SCS Correlation Energy    =      -1.3485027705085906 [Eh]
	 SCS Total Energy          =    -309.6423297535178563 [Eh]
	-----------------------------------------------------------

*** Psi4 exiting successfully. Buy a developer a beer!
