                               Psi4 1.9.1 release

  ==> Input File <==

--------------------------------------------------------------------------
MEMORY 10 GB

molecule dimer {
0 1
C    2.705068   0.610720  -0.064798
C    1.873022  -0.533017   0.462467
O    0.955402  -1.011338  -0.487410
H    0.348527  -0.282121  -0.686811
H    3.433977   0.947011   0.676255
H    2.065278   1.460338  -0.318595
H    3.241542   0.307945  -0.966339
H    1.358681  -0.221092   1.386265
H    2.512259  -1.378805   0.732867
--
0 1
C   -2.651856  -0.648398  -0.121827
C   -1.810098   0.386372   0.576450
O   -0.952614   1.076867  -0.319209
H   -1.485289   1.478530  -1.010883
H   -3.285694  -1.180235   0.590143
H   -2.016952  -1.377996  -0.628281
H   -3.306972  -0.184647  -0.865432
H   -1.147403  -0.087825   1.304799
H   -2.437075   1.100605   1.125209

units ang
no_reorient
no_com
symmetry c1
}

set {
basis        aug-cc-pVTZ
scf_type     df
}

energy("mp2", bsse_type="cp")
--------------------------------------------------------------------------

                               Psi4 1.9.1 release
    Molecular point group: c1
  Charge       = 0
  Multiplicity = 1
  Basis Set: AUG-CC-PVTZ
    Blend: AUG-CC-PVTZ
  Basis Set: (AUG-CC-PVTZ AUX)
    Blend: AUG-CC-PVTZ-JKFIT
  @DF-RHF Final Energy:  -154.14508876343103
    Total Energy =                       -154.1450887634310334
 Dipole X            :         90.1316154          -90.8429540           -0.7113386
 Dipole Y            :        -12.9382519           12.8335307           -0.1047211
 Dipole Z            :         -1.3387966            1.3031948           -0.0356018
 Magnitude           :                                                    0.7198865
  Basis Set: (AUG-CC-PVTZ AUX)
    Blend: AUG-CC-PVTZ-RI
	 Reference Energy          =    -154.1450887634310334 [Eh]
	 Singles Energy            =      -0.0000000000000000 [Eh]
	 Same-Spin Energy          =      -0.1482443359705222 [Eh]
	 Opposite-Spin Energy      =      -0.5186938050632460 [Eh]
	 Correlation Energy        =      -0.6669381410337683 [Eh]
	 Total Energy              =    -154.8120269044648012 [Eh]
	 SCS Total Energy          =    -154.8169361081637589 [Eh]
                               Psi4 1.9.1 release
    Molecular point group: c1
  Multiplicity = 1
  Basis Set: AUG-CC-PVTZ
    Blend: AUG-CC-PVTZ
  Basis Set: (AUG-CC-PVTZ AUX)
    Blend: AUG-CC-PVTZ-JKFIT
  @DF-RHF Final Energy:  -154.14452817340819
    Total Energy =                       -154.1445281734081902
  Basis Set: (AUG-CC-PVTZ AUX)
	 Singles Energy            =      -0.0000000000000000 [Eh]
	 Same-Spin Energy          =      -0.1483279954935991 [Eh]
	 Opposite-Spin Energy      =      -0.5187753019068754 [Eh]
	 Correlation Energy        =      -0.6671032974004745 [Eh]
	 Total Energy              =    -154.8116314708086634 [Eh]
	 SCS Total Energy          =    -154.8165012008609835 [Eh]
                               Psi4 1.9.1 release
    Molecular point group: c1

    Geometry (in Bohr), charge = 0, multiplicity = 1:

       Center              X                  Y                   Z               Mass
    ------------   -----------------  -----------------  -----------------  -----------------
         C            5.111837670740     1.154093539340    -0.122450473477    12.000000000000
         C            3.539498606957    -1.007256150213     0.873935972062    12.000000000000
         O            1.805448119715    -1.911151840268    -0.921071410809    15.994914619570
         H            0.658620577327    -0.533131424240    -1.297884689952     1.007825032230
         H            6.489276051121     1.789591427796     1.277936740971     1.007825032230
         H            3.902809792933     2.759638870599    -0.602057294940     1.007825032230
         H            6.125626604169     0.581931711704    -1.826116054349     1.007825032230
         H            2.567534981863    -0.417803328530     2.619661187308     1.007825032230
         H            4.747481466217    -2.605563830412     1.384917916386     1.007825032230
         C           -5.011281564152    -1.225294640295    -0.230219664686    12.000000000000
         C           -3.420589480239     0.730137262545     1.089332625020    12.000000000000
         O           -1.800179563277     2.034983703543    -0.603217586781    15.994914619570
         H           -2.806789427155     2.794016768273    -1.910292014881     1.007825032230
         H           -6.209061792060    -2.230320913680     1.115208644856     1.007825032230
         H           -3.811486888194    -2.604035041976    -1.187279019829     1.007825032230
         H           -6.249271384558    -0.348932259887    -1.635429460207     1.007825032230
         H           -2.168277425529    -0.165965196968     2.465712758771     1.007825032230
         H           -4.605404297200     2.079842022310     2.126336843900     1.007825032230

  Charge       = 0
  Multiplicity = 1
  Basis Set: AUG-CC-PVTZ
    Blend: AUG-CC-PVTZ
  Basis Set: (AUG-CC-PVTZ AUX)
    Blend: AUG-CC-PVTZ-JKFIT

    Orbital Energies [Eh]
    ---------------------

    Doubly Occupied:

       1A    -20.576978     2A    -20.528316     3A    -11.284713
       4A    -11.256897     5A    -11.223320     6A    -11.200929
       7A     -1.383143     8A     -1.338720     9A     -1.024478
      10A     -0.996081    11A     -0.860252    12A     -0.829010
      13A     -0.712951    14A     -0.667139    15A     -0.636969
      16A     -0.625936    17A     -0.607007    18A     -0.590389
      19A     -0.556543    20A     -0.535530    21A     -0.526040
      22A     -0.508984    23A     -0.495431    24A     -0.467752
      25A     -0.452916    26A     -0.421241

  @DF-RHF Final Energy:  -308.29376260339637

   => Energetics <=

    Nuclear Repulsion Energy =            258.2586658478288086
    One-Electron Energy =                -932.4895256936580381
    Two-Electron Energy =                 365.9370972424327988
    Total Energy =                       -308.2937626033963738
 Dipole X            :         -0.9149488           -0.0000019           -0.9149507
 Dipole Y            :          0.6343313            0.0000038            0.6343351
 Dipole Z            :          0.2124080           -0.0000057            0.2124024
 Magnitude           :                                                    1.1334154
  Basis Set: (AUG-CC-PVTZ AUX)
    Blend: AUG-CC-PVTZ-RI
	 Reference Energy          =    -308.2937626033963738 [Eh]
	 Singles Energy            =      -0.0000000000000000 [Eh]
	 Same-Spin Energy          =      -0.2999183110183360 [Eh]
	 Opposite-Spin Energy      =      -1.0400135527361862 [Eh]
	 Correlation Energy        =      -1.3399318637545223 [Eh]
	 Total Energy              =    -309.6336944671509173 [Eh]

	 ================> DF-SCS-MP2 Energies <==================
	-----------------------------------------------------------
	 SCS Same-Spin Scale       =       0.3333333333333333 [-]
	 SCS Opposite-Spin Scale   =       1.2000000000000000 [-]
	 SCS Same-Spin Energy      =      -0.0999727703394453 [Eh]
	 SCS Opposite-Spin Energy  =      -1.2480162632834235 [Eh]
	 SCS Correlation Energy    =      -1.3479890336228688 [Eh]
	 SCS Total Energy          =    -309.6417516370192402 [Eh]
	-----------------------------------------------------------

*** Psi4 exiting successfully. Buy a developer a beer!
