                               Psi4 1.9.1 release

  ==> Input File <==

--------------------------------------------------------------------------
MEMORY 10 GB

molecule dimer {
0 1
C   -2.332286  -0.594162   0.929414
C   -2.038118  -0.377989  -0.533495
O   -1.475161   0.890451  -0.788886
H   -2.094483   1.562221  -0.492265
H   -2.733929  -1.593604   1.108203
H   -3.069870   0.128721   1.290606
H   -1.424938  -0.475656   1.526138
H   -2.945777  -0.531245  -1.134126
H   -1.302113  -1.105115  -0.887403
--
0 1
C    1.600232   1.006966   0.722156
C    1.552024  -0.208091  -0.168267
O    2.796806  -0.864677  -0.265303
H    3.442184  -0.233382  -0.592657
H    0.612136   1.466607   0.787680
H    2.290966   1.755571   0.321755
H    1.938943   0.739349   1.725339
H    1.165155   0.068699  -1.158971
H    0.857453  -0.948704   0.240370

units ang
no_reorient
no_com
symmetry c1
}

set {
basis        aug-cc-pVTZ
scf_type     df
}

energy("mp2", bsse_type="cp")
--------------------------------------------------------------------------

                               Psi4 1.9.1 release
    Molecular point group: c1
  Charge       = 0
  Multiplicity = 1
  Basis Set: AUG-CC-PVTZ
    Blend: AUG-CC-PVTZ
  Basis Set: (AUG-CC-PVTZ AUX)
    Blend: AUG-CC-PVTZ-JKFIT
  @DF-RHF Final Energy:  -154.14504629409257
    Total Energy =                       -154.1450462940925661
 Dipole X            :        -97.6551456           97.5000812           -0.1550645
 Dipole Y            :         -0.6818076            1.3681126            0.6863050
 Dipole Z            :         -4.8899267            4.7704738           -0.1194529
 Magnitude           :                                                    0.7136725
  Basis Set: (AUG-CC-PVTZ AUX)
    Blend: AUG-CC-PVTZ-RI
	 Reference Energy          =    -154.1450462940925661 [Eh]
	 Singles Energy            =      -0.0000000000000000 [Eh]
	 Same-Spin Energy          =      -0.1482159961690134 [Eh]
	 Opposite-Spin Energy      =      -0.5183543325306000 [Eh]
	 Correlation Energy        =      -0.6665703286996134 [Eh]
	 Total Energy              =    -154.8116166227921724 [Eh]
	 SCS Total Energy          =    -154.8164768251856174 [Eh]
                               Psi4 1.9.1 release
    Molecular point group: c1
  Multiplicity = 1
  Basis Set: AUG-CC-PVTZ
    Blend: AUG-CC-PVTZ
  Basis Set: (AUG-CC-PVTZ AUX)
    Blend: AUG-CC-PVTZ-JKFIT
  @DF-RHF Final Energy:  -154.14518382211278
    Total Energy =                       -154.1451838221127844
  Basis Set: (AUG-CC-PVTZ AUX)
	 Singles Energy            =      -0.0000000000000000 [Eh]
	 Same-Spin Energy          =      -0.1481988374822881 [Eh]
	 Opposite-Spin Energy      =      -0.5184070454634031 [Eh]
	 Correlation Energy        =      -0.6666058829456912 [Eh]
	 Total Energy              =    -154.8117897050584872 [Eh]
	 SCS Total Energy          =    -154.8166718891629614 [Eh]
                               Psi4 1.9.1 release
    Molecular point group: c1

    Geometry (in Bohr), charge = 0, multiplicity = 1:

       Center              X                  Y                   Z               Mass
    ------------   -----------------  -----------------  -----------------  -----------------
         C           -4.407381786240    -1.122803454154     1.756337917166    12.000000000000
         C           -3.851484831366    -0.714295688436    -1.008159439301    12.000000000000
         O           -2.787650280956     1.682708518140    -1.490778484208    15.994914619570
         H           -3.957999244427     2.952169837439    -0.930246031148     1.007825032230
         H           -5.166377056447    -3.011475112434     2.094200161411     1.007825032230
         H           -5.801213540759     0.243247436595     2.438891875873     1.007825032230
         H           -2.692742565758    -0.898859569931     2.883982849654     1.007825032230
         H           -5.566711756673    -1.003907555519    -2.143187531761     1.007825032230
         H           -2.460636954398    -2.088364687135    -1.676948632910     1.007825032230
         C            3.024000217194     1.902889957648     1.364677059856    12.000000000000
         C            2.932900300138    -0.393234999173    -0.317978545952    12.000000000000
         O            5.285197366037    -1.634002716982    -0.501350010262    15.994914619570
         H            6.504785033433    -0.441028062612    -1.119959416335     1.007825032230
         H            1.156769391533     2.771485563679     1.488499474501     1.007825032230
         H            4.329298302736     3.317548383796     0.608028829497     1.007825032230
         H            3.664071242874     1.397167121131     3.260418183571     1.007825032230
         H            2.201823843708     0.129822295093    -2.190137777348     1.007825032230
         H            1.620351335452    -1.792790734126     0.454233468776     1.007825032230

  Charge       = 0
  Multiplicity = 1
  Basis Set: AUG-CC-PVTZ
    Blend: AUG-CC-PVTZ
  Basis Set: (AUG-CC-PVTZ AUX)
    Blend: AUG-CC-PVTZ-JKFIT

    Orbital Energies [Eh]
    ---------------------

    Doubly Occupied:

       1A    -20.561737     2A    -20.546348     3A    -11.277853
       4A    -11.261256     5A    -11.222029     6A    -11.205198
       7A     -1.368924     8A     -1.352796     9A     -1.019133
      10A     -1.002780    11A     -0.853689    12A     -0.836635
      13A     -0.695683    14A     -0.676107    15A     -0.632538
      16A     -0.620627    17A     -0.608746    18A     -0.600694
      19A     -0.551181    20A     -0.533652    21A     -0.530544
      22A     -0.515644    23A     -0.485711    24A     -0.469535
      25A     -0.448755    26A     -0.431744

  @DF-RHF Final Energy:  -308.28870546080003

   => Energetics <=

    Nuclear Repulsion Energy =            250.9895651714603275
    One-Electron Energy =                -917.9374653550613630
    Two-Electron Energy =                 358.6591947228010326
    Total Energy =                       -308.2887054608000312
 Dipole X            :         -0.8786051           -0.0000019           -0.8786070
 Dipole Y            :          0.5564708           -0.0000038            0.5564670
 Dipole Z            :          0.1507204            0.0000094            0.1507299
 Magnitude           :                                                    1.0508688
  Basis Set: (AUG-CC-PVTZ AUX)
    Blend: AUG-CC-PVTZ-RI
	 Reference Energy          =    -308.2887054608000312 [Eh]
	 Singles Energy            =      -0.0000000000000000 [Eh]
	 Same-Spin Energy          =      -0.2987518183582275 [Eh]
	 Opposite-Spin Energy      =      -1.0390299185973699 [Eh]
	 Correlation Energy        =      -1.3377817369555973 [Eh]
	 Total Energy              =    -309.6264871977556368 [Eh]

	 ================> DF-SCS-MP2 Energies <==================
	-----------------------------------------------------------
	 SCS Same-Spin Scale       =       0.3333333333333333 [-]
	 SCS Opposite-Spin Scale   =       1.2000000000000000 [-]
	 SCS Same-Spin Energy      =      -0.0995839394527425 [Eh]
	 SCS Opposite-Spin Energy  =      -1.2468359023168438 [Eh]
	 SCS Correlation Energy    =      -1.3464198417695863 [Eh]
	 SCS Total Energy          =    -309.6351253025696337 [Eh]
	-----------------------------------------------------------

*** Psi4 exiting successfully. Buy a developer a beer!
