                               Psi4 1.9.1 release

  ==> Input File <==

--------------------------------------------------------------------------
MEMORY 10 GB

molecule dimer {
0 1
C    1.655811  -1.171747   0.509564
C    1.795850  -0.093145  -0.528686
O    2.003725   1.125419   0.149762
H    2.071690   1.835601  -0.491492
H    1.461846  -2.141374   0.045964
H    0.838679  -0.935019   1.198796
H    2.565024  -1.253844   1.107180
H    0.890088  -0.047115  -1.152184
H    2.636862  -0.321483  -1.198187
--
0 1
C   -1.556423   1.252588   0.087970
C   -2.276187  -0.062253   0.262607
O   -1.702117  -1.106192  -0.492968
H   -0.840962  -1.312772  -0.118603
H   -2.067779   2.051162   0.630320
H   -1.520351   1.525167  -0.969614
H   -0.528570   1.202618   0.461108
H   -3.309605   0.021323  -0.084215
H   -2.324097  -0.330739   1.327845

units ang
no_reorient
no_com
symmetry c1
}

set {
basis        aug-cc-pVTZ
scf_type     df
}

energy("mp2", bsse_type="cp")
--------------------------------------------------------------------------

                               Psi4 1.9.1 release
    Molecular point group: c1
  Charge       = 0
  Multiplicity = 1
  Basis Set: AUG-CC-PVTZ
    Blend: AUG-CC-PVTZ
  Basis Set: (AUG-CC-PVTZ AUX)
    Blend: AUG-CC-PVTZ-JKFIT
  @DF-RHF Final Energy:  -154.14510023465795
    Total Energy =                       -154.1451002346579457
 Dipole X            :         89.4827356          -89.2025564            0.2801792
 Dipole Y            :         -2.3844225            2.7386535            0.3542310
 Dipole Z            :          1.6587930           -1.1214410            0.5373520
 Magnitude           :                                                    0.7019453
  Basis Set: (AUG-CC-PVTZ AUX)
    Blend: AUG-CC-PVTZ-RI
	 Reference Energy          =    -154.1451002346579457 [Eh]
	 Singles Energy            =      -0.0000000000000000 [Eh]
	 Same-Spin Energy          =      -0.1481872879300182 [Eh]
	 Opposite-Spin Energy      =      -0.5186673598447379 [Eh]
	 Correlation Energy        =      -0.6668546477747561 [Eh]
	 Total Energy              =    -154.8119548824327012 [Eh]
	 SCS Total Energy          =    -154.8168968291149667 [Eh]
                               Psi4 1.9.1 release
    Molecular point group: c1
  Multiplicity = 1
  Basis Set: AUG-CC-PVTZ
    Blend: AUG-CC-PVTZ
  Basis Set: (AUG-CC-PVTZ AUX)
    Blend: AUG-CC-PVTZ-JKFIT
  @DF-RHF Final Energy:  -154.14554845214892
    Total Energy =                       -154.1455484521489154
  Basis Set: (AUG-CC-PVTZ AUX)
	 Singles Energy            =      -0.0000000000000000 [Eh]
	 Same-Spin Energy          =      -0.1481678711054815 [Eh]
	 Opposite-Spin Energy      =      -0.5186006213969644 [Eh]
	 Correlation Energy        =      -0.6667684925024460 [Eh]
	 Total Energy              =    -154.8123169446513714 [Eh]
	 SCS Total Energy          =    -154.8172584881937723 [Eh]
                               Psi4 1.9.1 release
    Molecular point group: c1

    Geometry (in Bohr), charge = 0, multiplicity = 1:

       Center              X                  Y                   Z               Mass
    ------------   -----------------  -----------------  -----------------  -----------------
         C            3.129029305520    -2.214280918327     0.962936403393    12.000000000000
         C            3.393664662403    -0.176018539956    -0.999071746364    12.000000000000
         O            3.786491480733     2.126733686387     0.283009164001    15.994914619570
         H            3.914926716850     3.468783165617    -0.928785272854     1.007825032230
         H            2.762488577596    -4.046610392176     0.086859371631     1.007825032230
         H            1.584873617173    -1.766929832099     2.265396120294     1.007825032230
         H            4.847192865226    -2.369421764049     2.092266971584     1.007825032230
         H            1.682022547557    -0.089034446401    -2.177312206135     1.007825032230
         H            4.982947010627    -0.607514823991    -2.264245277084     1.007825032230
         C           -2.941213205363     2.367048268035     0.166239207257    12.000000000000
         C           -4.301370040327    -0.117641120488     0.496255308628    12.000000000000
         O           -3.216534963486    -2.090399922172    -0.931574508615    15.994914619570
         H           -1.589187861917    -2.480779545170    -0.224127187658     1.007825032230
         H           -3.907535997973     3.876134418946     1.191132171399     1.007825032230
         H           -2.873047004566     2.882147925586    -1.832304907410     1.007825032230
         H           -0.998852538133     2.272618653546     0.871367834258     1.007825032230
         H           -6.254247033446     0.040294630173    -0.159143285655     1.007825032230
         H           -4.391906818998    -0.625006129008     2.509263387059     1.007825032230

  Charge       = 0
  Multiplicity = 1
  Basis Set: AUG-CC-PVTZ
    Blend: AUG-CC-PVTZ
  Basis Set: (AUG-CC-PVTZ AUX)
    Blend: AUG-CC-PVTZ-JKFIT

    Orbital Energies [Eh]
    ---------------------

    Doubly Occupied:

       1A    -20.563559     2A    -20.551956     3A    -11.280741
       4A    -11.269696     5A    -11.224210     6A    -11.209370
       7A     -1.370859     8A     -1.358840     9A     -1.025498
      10A     -1.008766    11A     -0.844025    12A     -0.842415
      13A     -0.712637    14A     -0.690094    15A     -0.656419
      16A     -0.620835    17A     -0.600454    18A     -0.584168
      19A     -0.546969    20A     -0.543454    21A     -0.535321
      22A     -0.518624    23A     -0.498303    24A     -0.473645
      25A     -0.449385    26A     -0.438633

  @DF-RHF Final Energy:  -308.28793324702769

   => Energetics <=

    Nuclear Repulsion Energy =            256.0084113036298845
    One-Electron Energy =                -927.7549360927762336
    Two-Electron Energy =                 363.4585915421187110
    Total Energy =                       -308.2879332470276950
 Dipole X            :          0.3877440           -0.0000094            0.3877346
 Dipole Y            :          0.2976413           -0.0000019            0.2976394
 Dipole Z            :         -0.1076215           -0.0000000           -0.1076215
 Magnitude           :                                                    0.5005095
  Basis Set: (AUG-CC-PVTZ AUX)
    Blend: AUG-CC-PVTZ-RI
	 Reference Energy          =    -308.2879332470276950 [Eh]
	 Singles Energy            =      -0.0000000000000000 [Eh]
	 Same-Spin Energy          =      -0.2995258509102289 [Eh]
	 Opposite-Spin Energy      =      -1.0402572172347757 [Eh]
	 Correlation Energy        =      -1.3397830681450047 [Eh]
	 Total Energy              =    -309.6277163151726768 [Eh]

	 ================> DF-SCS-MP2 Energies <==================
	-----------------------------------------------------------
	 SCS Same-Spin Scale       =       0.3333333333333333 [-]
	 SCS Opposite-Spin Scale   =       1.2000000000000000 [-]
	 SCS Same-Spin Energy      =      -0.0998419503034096 [Eh]
	 SCS Opposite-Spin Energy  =      -1.2483086606817309 [Eh]
	 SCS Correlation Energy    =      -1.3481506109851404 [Eh]
	 SCS Total Energy          =    -309.6360838580128529 [Eh]
	-----------------------------------------------------------

*** Psi4 exiting successfully. Buy a developer a beer!
