                               Psi4 1.9.1 release

  ==> Input File <==

--------------------------------------------------------------------------
MEMORY 10 GB

molecule dimer {
0 1
C   -2.285309  -0.761088  -0.427513
C   -1.714720   0.631558  -0.309701
O   -1.072778   0.847664   0.919368
H   -0.398112   0.158472   1.022803
H   -2.793669  -0.903055  -1.383934
H   -2.999897  -0.949525   0.376126
H   -1.490434  -1.508978  -0.350374
H   -2.510620   1.378697  -0.382830
H   -1.030152   0.827401  -1.153322
--
0 1
C    2.153779   0.895609  -0.350996
C    1.675674  -0.525792  -0.494537
O    1.106631  -1.028888   0.703835
H    1.772442  -1.000822   1.396537
H    2.547837   1.271404  -1.297171
H    2.954107   0.965752   0.391475
H    1.334010   1.543107  -0.031210
H    2.486286  -1.183106  -0.833936
H    0.880838  -0.591278  -1.243298

units ang
no_reorient
no_com
symmetry c1
}

set {
basis        aug-cc-pVTZ
scf_type     df
}

energy("mp2", bsse_type="cp")
--------------------------------------------------------------------------

                               Psi4 1.9.1 release
    Molecular point group: c1
  Charge       = 0
  Multiplicity = 1
  Basis Set: AUG-CC-PVTZ
    Blend: AUG-CC-PVTZ
  Basis Set: (AUG-CC-PVTZ AUX)
    Blend: AUG-CC-PVTZ-JKFIT
  @DF-RHF Final Energy:  -154.14511165640477
    Total Energy =                       -154.1451116564047652
 Dipole X            :        -82.1298620           82.7799934            0.6501314
 Dipole Y            :          9.7425433           -9.4621327            0.2804105
 Dipole Z            :          1.8913329           -2.0033383           -0.1120055
 Magnitude           :                                                    0.7168306
  Basis Set: (AUG-CC-PVTZ AUX)
    Blend: AUG-CC-PVTZ-RI
	 Reference Energy          =    -154.1451116564047652 [Eh]
	 Singles Energy            =      -0.0000000000000000 [Eh]
	 Same-Spin Energy          =      -0.1482591145363032 [Eh]
	 Opposite-Spin Energy      =      -0.5189819207809367 [Eh]
	 Correlation Energy        =      -0.6672410353172400 [Eh]
	 Total Energy              =    -154.8123526917219976 [Eh]
	 SCS Total Energy          =    -154.8173096661873274 [Eh]
                               Psi4 1.9.1 release
    Molecular point group: c1
  Multiplicity = 1
  Basis Set: AUG-CC-PVTZ
    Blend: AUG-CC-PVTZ
  Basis Set: (AUG-CC-PVTZ AUX)
    Blend: AUG-CC-PVTZ-JKFIT
  @DF-RHF Final Energy:  -154.14451821334393
    Total Energy =                       -154.1445182133439289
  Basis Set: (AUG-CC-PVTZ AUX)
	 Singles Energy            =      -0.0000000000000000 [Eh]
	 Same-Spin Energy          =      -0.1483657789803270 [Eh]
	 Opposite-Spin Energy      =      -0.5190577873000890 [Eh]
	 Correlation Energy        =      -0.6674235662804160 [Eh]
	 Total Energy              =    -154.8119417796243340 [Eh]
	 SCS Total Energy          =    -154.8168428177641545 [Eh]
                               Psi4 1.9.1 release
    Molecular point group: c1

    Geometry (in Bohr), charge = 0, multiplicity = 1:

       Center              X                  Y                   Z               Mass
    ------------   -----------------  -----------------  -----------------  -----------------
         C           -4.318608122044    -1.438247877372    -0.807882485073    12.000000000000
         C           -3.240351181845     1.193471652342    -0.585250070780    12.000000000000
         O           -2.027256613416     1.601852806410     1.737353728510    15.994914619570
         H           -0.752322647258     0.299468678554     1.932817550297     1.007825032230
         H           -5.279269295182    -1.706526626225    -2.615256235709     1.007825032230
         H           -5.668983734583    -1.794342199275     0.710775128664     1.007825032230
         H           -2.816512068071    -2.851555149341    -0.662110901481     1.007825032230
         H           -4.744384205097     2.605359739990    -0.723443852609     1.007825032230
         H           -1.946705147593     1.563561285930    -2.179462714465     1.007825032230
         C            4.070052444762     1.692455725495    -0.663286311131    12.000000000000
         C            3.166564935550    -0.993602878957    -0.934539488906    12.000000000000
         O            2.091229511942    -1.944316533770     1.330055387512    15.994914619570
         H            3.349429953259    -1.891279480333     2.639072454068     1.007825032230
         H            4.814714142308     2.402605354812    -2.451297927886     1.007825032230
         H            5.582453175298     1.825006785113     0.739780534964     1.007825032230
         H            2.520913548622     2.916049612277    -0.058978352376     1.007825032230
         H            4.698399609560    -2.235746317386    -1.575910646160     1.007825032230
         H            1.664542580896    -1.117353484008    -2.349492712329     1.007825032230

  Charge       = 0
  Multiplicity = 1
  Basis Set: AUG-CC-PVTZ
    Blend: AUG-CC-PVTZ
  Basis Set: (AUG-CC-PVTZ AUX)
    Blend: AUG-CC-PVTZ-JKFIT

    Orbital Energies [Eh]
    ---------------------

    Doubly Occupied:

       1A    -20.577418     2A    -20.530345     3A    -11.286676
       4A    -11.260253     5A    -11.222610     6A    -11.204407
       7A     -1.383631     8A     -1.341249     9A     -1.025114
      10A     -0.999299    11A     -0.860607    12A     -0.833240
      13A     -0.713302    14A     -0.669111    15A     -0.639047
      16A     -0.621963    17A     -0.610050    18A     -0.599992
      19A     -0.556440    20A     -0.535994    21A     -0.528102
      22A     -0.511766    23A     -0.495367    24A     -0.469808
      25A     -0.455086    26A     -0.422383

  @DF-RHF Final Energy:  -308.29231800825636

   => Energetics <=

    Nuclear Repulsion Energy =            262.9188635537195751
    One-Electron Energy =                -941.7158317993986429
    Two-Electron Energy =                 370.5046502374227089
    Total Energy =                       -308.2923180082563590
 Dipole X            :          0.9758460            0.0000076            0.9758536
 Dipole Y            :         -0.3310258           -0.0000019           -0.3310277
 Dipole Z            :         -0.5097638            0.0000151           -0.5097487
 Magnitude           :                                                    1.1496579
  Basis Set: (AUG-CC-PVTZ AUX)
    Blend: AUG-CC-PVTZ-RI
	 Reference Energy          =    -308.2923180082563590 [Eh]
	 Singles Energy            =      -0.0000000000000000 [Eh]
	 Same-Spin Energy          =      -0.3006744978323898 [Eh]
	 Opposite-Spin Energy      =      -1.0413097279636647 [Eh]
	 Correlation Energy        =      -1.3419842257960544 [Eh]
	 Total Energy              =    -309.6343022340524271 [Eh]

	 ================> DF-SCS-MP2 Energies <==================
	-----------------------------------------------------------
	 SCS Same-Spin Scale       =       0.3333333333333333 [-]
	 SCS Opposite-Spin Scale   =       1.2000000000000000 [-]
	 SCS Same-Spin Energy      =      -0.1002248326107966 [Eh]
	 SCS Opposite-Spin Energy  =      -1.2495716735563975 [Eh]
	 SCS Correlation Energy    =      -1.3497965061671942 [Eh]
	 SCS Total Energy          =    -309.6421145144235538 [Eh]
	-----------------------------------------------------------

*** Psi4 exiting successfully. Buy a developer a beer!
