                               Psi4 1.9.1 release

  ==> Input File <==

--------------------------------------------------------------------------
MEMORY 10 GB

molecule dimer {
0 1
C    1.304294   0.360127   0.101275
C    2.514623  -0.517210  -0.088200
O    3.722704   0.211060  -0.086902
H    3.758125   0.727118   0.722329
H    0.378416  -0.218942   0.060467
H    1.267261   1.131795  -0.671121
H    1.338390   0.861527   1.074343
H    2.472433  -1.021838  -1.057015
H    2.533191  -1.307406   0.676953
--
0 1
C   -2.419983   1.192488  -0.059165
C   -3.005409  -0.190353  -0.010925
O   -1.938905  -1.112634   0.050640
H   -2.291843  -2.003829   0.075668
H   -3.207285   1.946380  -0.105419
H   -1.780487   1.306299  -0.936664
H   -1.812361   1.381413   0.828168
H   -3.625825  -0.368260  -0.900919
H   -3.661554  -0.291977   0.865400

units ang
no_reorient
no_com
symmetry c1
}

set {
basis        aug-cc-pVTZ
scf_type     df
}

energy("mp2", bsse_type="cp")
--------------------------------------------------------------------------

                               Psi4 1.9.1 release
    Molecular point group: c1
  Charge       = 0
  Multiplicity = 1
  Basis Set: AUG-CC-PVTZ
    Blend: AUG-CC-PVTZ
  Basis Set: (AUG-CC-PVTZ AUX)
    Blend: AUG-CC-PVTZ-JKFIT
  @DF-RHF Final Energy:  -154.14566737605429
    Total Energy =                       -154.1456673760542913
 Dipole X            :        121.1386806         -121.7795205           -0.6408400
 Dipole Y            :          1.5911564           -1.7352146           -0.1440582
 Dipole Z            :          0.3464938           -0.3575097           -0.0110159
 Magnitude           :                                                    0.6569246
  Basis Set: (AUG-CC-PVTZ AUX)
    Blend: AUG-CC-PVTZ-RI
	 Reference Energy          =    -154.1456673760542913 [Eh]
	 Singles Energy            =      -0.0000000000000000 [Eh]
	 Same-Spin Energy          =      -0.1480957456884730 [Eh]
	 Opposite-Spin Energy      =      -0.5178913470831852 [Eh]
	 Correlation Energy        =      -0.6659870927716581 [Eh]
	 Total Energy              =    -154.8116544688259353 [Eh]
	 SCS Total Energy          =    -154.8165022411169502 [Eh]
                               Psi4 1.9.1 release
    Molecular point group: c1
  Multiplicity = 1
  Basis Set: AUG-CC-PVTZ
    Blend: AUG-CC-PVTZ
  Basis Set: (AUG-CC-PVTZ AUX)
    Blend: AUG-CC-PVTZ-JKFIT
  @DF-RHF Final Energy:  -154.14498374652510
    Total Energy =                       -154.1449837465250994
  Basis Set: (AUG-CC-PVTZ AUX)
	 Singles Energy            =      -0.0000000000000000 [Eh]
	 Same-Spin Energy          =      -0.1482018023422663 [Eh]
	 Opposite-Spin Energy      =      -0.5182599177209110 [Eh]
	 Correlation Energy        =      -0.6664617200631773 [Eh]
	 Total Energy              =    -154.8114454665882818 [Eh]
	 SCS Total Energy          =    -154.8162962485709500 [Eh]
                               Psi4 1.9.1 release
    Molecular point group: c1

    Geometry (in Bohr), charge = 0, multiplicity = 1:

       Center              X                  Y                   Z               Mass
    ------------   -----------------  -----------------  -----------------  -----------------
         C            2.464758447078     0.680541400383     0.191382013356    12.000000000000
         C            4.751948778777    -0.977385249348    -0.166673844265    12.000000000000
         O            7.034891006146     0.398845596039    -0.164220979755    15.994914619570
         H            7.101826995236     1.374053880891     1.365003982476     1.007825032230
         H            0.715102601491    -0.413740417360     0.114266069628     1.007825032230
         H            2.394776219474     2.138782580163    -1.268234887043     1.007825032230
         H            2.529190549052     1.628050079687     2.030214034803     1.007825032230
         H            4.672221233544    -1.930993964586    -1.997468860501     1.007825032230
         H            4.787037213475    -2.470639274780     1.279255769807     1.007825032230
         C           -4.573105098264     2.253475727895    -0.111805646213    12.000000000000
         C           -5.679399904986    -0.359715037159    -0.020645257921    12.000000000000
         O           -3.663999433281    -2.102573537873     0.095695730993    15.994914619570
         H           -4.330955592548    -3.786688012250     0.142991796461     1.007825032230
         H           -6.060890256289     3.678125136069    -0.199213038420     1.007825032230
         H           -3.364632799938     2.468547347959    -1.770038431576     1.007825032230
         H           -3.424865930461     2.610492236147     1.565010705868     1.007825032230
         H           -6.851816228838    -0.695910542961    -1.702490171221     1.007825032230
         H           -6.919334253575    -0.551756564933     1.635368988971     1.007825032230

  Charge       = 0
  Multiplicity = 1
  Basis Set: AUG-CC-PVTZ
    Blend: AUG-CC-PVTZ
  Basis Set: (AUG-CC-PVTZ AUX)
    Blend: AUG-CC-PVTZ-JKFIT

    Orbital Energies [Eh]
    ---------------------

    Doubly Occupied:

       1A    -20.562642     2A    -20.546357     3A    -11.278894
       4A    -11.262235     5A    -11.215147     6A    -11.201884
       7A     -1.369326     8A     -1.352866     9A     -1.019398
      10A     -1.001183    11A     -0.840211    12A     -0.835251
      13A     -0.710687    14A     -0.675683    15A     -0.651327
      16A     -0.614249    17A     -0.602446    18A     -0.581639
      19A     -0.538907    20A     -0.531313    21A     -0.528776
      22A     -0.513511    23A     -0.492102    24A     -0.469727
      25A     -0.446418    26A     -0.431941

  @DF-RHF Final Energy:  -308.29022155019567

   => Energetics <=

    Nuclear Repulsion Energy =            237.8830201339281416
    One-Electron Energy =                -891.7982380623325298
    Two-Electron Energy =                 345.6249963782087775
    Total Energy =                       -308.2902215501956675
 Dipole X            :         -1.3262462            0.0000057           -1.3262405
 Dipole Y            :         -0.1652035           -0.0000000           -0.1652035
 Dipole Z            :          0.4548351            0.0000076            0.4548426
 Magnitude           :                                                    1.4117676
  Basis Set: (AUG-CC-PVTZ AUX)
    Blend: AUG-CC-PVTZ-RI
	 Reference Energy          =    -308.2902215501956675 [Eh]
	 Singles Energy            =      -0.0000000000000000 [Eh]
	 Same-Spin Energy          =      -0.2977376999067943 [Eh]
	 Opposite-Spin Energy      =      -1.0374819911588635 [Eh]
	 Correlation Energy        =      -1.3352196910656580 [Eh]
	 Total Energy              =    -309.6254412412613419 [Eh]

	 ================> DF-SCS-MP2 Energies <==================
	-----------------------------------------------------------
	 SCS Same-Spin Scale       =       0.3333333333333333 [-]
	 SCS Opposite-Spin Scale   =       1.2000000000000000 [-]
	 SCS Same-Spin Energy      =      -0.0992458999689314 [Eh]
	 SCS Opposite-Spin Energy  =      -1.2449783893906361 [Eh]
	 SCS Correlation Energy    =      -1.3442242893595675 [Eh]
	 SCS Total Energy          =    -309.6344458395552124 [Eh]
	-----------------------------------------------------------

*** Psi4 exiting successfully. Buy a developer a beer!
