                               Psi4 1.9.1 release

  ==> Input File <==

--------------------------------------------------------------------------
MEMORY 10 GB

molecule dimer {
0 1
C   -1.340230  -1.238701  -0.247369
C   -1.813966  -0.055383   0.560776
O   -2.628598   0.815222  -0.185925
H   -2.118850   1.148555  -0.929233
H   -0.714968  -1.904102   0.354276
H   -0.756335  -0.904688  -1.113642
H   -2.186486  -1.812197  -0.629103
H   -0.954235   0.480136   0.991745
H   -2.424653  -0.391893   1.402230
--
0 1
C    1.540954   1.314974  -0.308347
C    2.019043   0.152422   0.525881
O    2.227891  -1.012069  -0.236919
H    1.390962  -1.264575  -0.637521
H    1.410523   2.212568   0.300175
H    0.575452   1.087302  -0.773428
H    2.251947   1.534796  -1.106648
H    1.315507  -0.037436   1.351327
H    2.981990   0.386431   0.986923

units ang
no_reorient
no_com
symmetry c1
}

set {
basis        aug-cc-pVTZ
scf_type     df
}

energy("mp2", bsse_type="cp")
--------------------------------------------------------------------------

                               Psi4 1.9.1 release
    Molecular point group: c1
  Charge       = 0
  Multiplicity = 1
  Basis Set: AUG-CC-PVTZ
    Blend: AUG-CC-PVTZ
  Basis Set: (AUG-CC-PVTZ AUX)
    Blend: AUG-CC-PVTZ-JKFIT
  @DF-RHF Final Energy:  -154.14512661469828
    Total Energy =                       -154.1451266146982846
 Dipole X            :        -93.3926799           92.8034882           -0.5891917
 Dipole Y            :         -8.3619744            8.7435927            0.3816183
 Dipole Z            :          0.9512744           -0.8868863            0.0643881
 Magnitude           :                                                    0.7049293
  Basis Set: (AUG-CC-PVTZ AUX)
    Blend: AUG-CC-PVTZ-RI
	 Reference Energy          =    -154.1451266146982846 [Eh]
	 Singles Energy            =      -0.0000000000000000 [Eh]
	 Same-Spin Energy          =      -0.1482147166783627 [Eh]
	 Opposite-Spin Energy      =      -0.5185775969954397 [Eh]
	 Correlation Energy        =      -0.6667923136738024 [Eh]
	 Total Energy              =    -154.8119189283720800 [Eh]
	 SCS Total Energy          =    -154.8168246366522567 [Eh]
                               Psi4 1.9.1 release
    Molecular point group: c1
  Multiplicity = 1
  Basis Set: AUG-CC-PVTZ
    Blend: AUG-CC-PVTZ
  Basis Set: (AUG-CC-PVTZ AUX)
    Blend: AUG-CC-PVTZ-JKFIT
  @DF-RHF Final Energy:  -154.14510707808319
    Total Energy =                       -154.1451070780831856
  Basis Set: (AUG-CC-PVTZ AUX)
	 Singles Energy            =      -0.0000000000000000 [Eh]
	 Same-Spin Energy          =      -0.1481984957558771 [Eh]
	 Opposite-Spin Energy      =      -0.5185389376687449 [Eh]
	 Correlation Energy        =      -0.6667374334246221 [Eh]
	 Total Energy              =    -154.8118445115078146 [Eh]
	 SCS Total Energy          =    -154.8167533018709605 [Eh]
                               Psi4 1.9.1 release
    Molecular point group: c1

    Geometry (in Bohr), charge = 0, multiplicity = 1:

       Center              X                  Y                   Z               Mass
    ------------   -----------------  -----------------  -----------------  -----------------
         C           -2.532667645122    -2.340805641331    -0.467459661928    12.000000000000
         C           -3.427898940892    -0.104658702006     1.059713057730    12.000000000000
         O           -4.967330313926     1.540546311448    -0.351347329876    15.994914619570
         H           -4.004046200926     2.170454390025    -1.755995876738     1.007825032230
         H           -1.351093708466    -3.598231294937     0.669484612823     1.007825032230
         H           -1.429266009098    -1.709612548988    -2.104478381807     1.007825032230
         H           -4.131859717148    -3.424556015376    -1.188832374704     1.007825032230
         H           -1.803242809326     0.907325542973     1.874126436292     1.007825032230
         H           -4.581930119270    -0.740570440484     2.649830664901     1.007825032230
         C            2.911981031929     2.484940722098    -0.582691381607    12.000000000000
         C            3.815438305523     0.288035835495     0.993771064582    12.000000000000
         O            4.210103827372    -1.912533230066    -0.447712023917    15.994914619570
         H            2.628537230919    -2.389700415101    -1.204740089228     1.007825032230
         H            2.665502163659     4.181147553952     0.567248539709     1.007825032230
         H            1.087446678347     2.054702995663    -1.461567097761     1.007825032230
         H            4.255563079046     2.900344098448    -2.091261637286     1.007825032230
         H            2.485947946123    -0.070743787233     2.553637935937     1.007825032230
         H            5.635144408854     0.730248756387     1.865014176915     1.007825032230

  Charge       = 0
  Multiplicity = 1
  Basis Set: AUG-CC-PVTZ
    Blend: AUG-CC-PVTZ
  Basis Set: (AUG-CC-PVTZ AUX)
    Blend: AUG-CC-PVTZ-JKFIT

    Orbital Energies [Eh]
    ---------------------

    Doubly Occupied:

       1A    -20.563308     2A    -20.559164     3A    -11.281645
       4A    -11.278496     5A    -11.230266     6A    -11.224466
       7A     -1.370988     8A     -1.367008     9A     -1.025970
      10A     -1.019494    11A     -0.859251    12A     -0.852927
      13A     -0.703669    14A     -0.690834    15A     -0.637904
      16A     -0.630995    17A     -0.619014    18A     -0.613608
      19A     -0.556770    20A     -0.551068    21A     -0.539669
      22A     -0.530475    23A     -0.492481    24A     -0.481424
      25A     -0.452597    26A     -0.446050

  @DF-RHF Final Energy:  -308.28619693792189

   => Energetics <=

    Nuclear Repulsion Energy =            253.1659246164439026
    One-Electron Energy =                -921.7451552681163776
    Two-Electron Energy =                 360.2930337137505603
    Total Energy =                       -308.2861969379218863
 Dipole X            :          0.0216979            0.0000076            0.0217054
 Dipole Y            :          0.1678808           -0.0000132            0.1678676
 Dipole Z            :         -0.0389490           -0.0000094           -0.0389584
 Magnitude           :                                                    0.1736905
  Basis Set: (AUG-CC-PVTZ AUX)
    Blend: AUG-CC-PVTZ-RI
	 Reference Energy          =    -308.2861969379218863 [Eh]
	 Singles Energy            =      -0.0000000000000000 [Eh]
	 Same-Spin Energy          =      -0.2994804508849919 [Eh]
	 Opposite-Spin Energy      =      -1.0402481091928206 [Eh]
	 Correlation Energy        =      -1.3397285600778126 [Eh]
	 Total Energy              =    -309.6259254979996740 [Eh]

	 ================> DF-SCS-MP2 Energies <==================
	-----------------------------------------------------------
	 SCS Same-Spin Scale       =       0.3333333333333333 [-]
	 SCS Opposite-Spin Scale   =       1.2000000000000000 [-]
	 SCS Same-Spin Energy      =      -0.0998268169616640 [Eh]
	 SCS Opposite-Spin Energy  =      -1.2482977310313847 [Eh]
	 SCS Correlation Energy    =      -1.3481245479930486 [Eh]
	 SCS Total Energy          =    -309.6343214859149384 [Eh]
	-----------------------------------------------------------

*** Psi4 exiting successfully. Buy a developer a beer!
