                               Psi4 1.9.1 release

  ==> Input File <==

--------------------------------------------------------------------------
MEMORY 10 GB

molecule dimer {
0 1
C    1.931029   0.578330   0.958826
C    1.965727   0.223154  -0.499988
O    1.180761  -0.944252  -0.685860
H    1.221035  -1.219217  -1.603930
H    2.525477   1.472677   1.150060
H    2.332495  -0.239373   1.560047
H    0.905552   0.764576   1.285506
H    2.996705   0.041005  -0.829297
H    1.569906   1.051912  -1.104047
--
0 1
C   -1.746207   1.121099  -0.476950
C   -2.174033  -0.252033  -0.013091
O   -1.256421  -0.835427   0.871900
H   -0.431806  -0.990078   0.386917
H   -2.499550   1.576228  -1.124257
H   -0.809659   1.064234  -1.039748
H   -1.584424   1.779019   0.380020
H   -2.353642  -0.900384  -0.885059
H   -3.125905  -0.186473   0.522681

units ang
no_reorient
no_com
symmetry c1
}

set {
basis        aug-cc-pVTZ
scf_type     df
}

energy("mp2", bsse_type="cp")
--------------------------------------------------------------------------

                               Psi4 1.9.1 release
    Molecular point group: c1
  Charge       = 0
  Multiplicity = 1
  Basis Set: AUG-CC-PVTZ
    Blend: AUG-CC-PVTZ
  Basis Set: (AUG-CC-PVTZ AUX)
    Blend: AUG-CC-PVTZ-JKFIT
  @DF-RHF Final Energy:  -154.14469458713376
    Total Energy =                       -154.1446945871337562
 Dipole X            :         83.9702159          -83.8618767            0.1083392
 Dipole Y            :         -1.4624038            1.6507249            0.1883211
 Dipole Z            :         -4.9634885            4.3000869           -0.6634016
 Magnitude           :                                                    0.6980715
  Basis Set: (AUG-CC-PVTZ AUX)
    Blend: AUG-CC-PVTZ-RI
	 Reference Energy          =    -154.1446945871337562 [Eh]
	 Singles Energy            =      -0.0000000000000000 [Eh]
	 Same-Spin Energy          =      -0.1482990813318576 [Eh]
	 Opposite-Spin Energy      =      -0.5189258362137015 [Eh]
	 Correlation Energy        =      -0.6672249175455591 [Eh]
	 Total Energy              =    -154.8119195046793095 [Eh]
	 SCS Total Energy          =    -154.8168386177008244 [Eh]
                               Psi4 1.9.1 release
    Molecular point group: c1
  Multiplicity = 1
  Basis Set: AUG-CC-PVTZ
    Blend: AUG-CC-PVTZ
  Basis Set: (AUG-CC-PVTZ AUX)
    Blend: AUG-CC-PVTZ-JKFIT
  @DF-RHF Final Energy:  -154.14567909565122
    Total Energy =                       -154.1456790956512179
  Basis Set: (AUG-CC-PVTZ AUX)
	 Singles Energy            =      -0.0000000000000000 [Eh]
	 Same-Spin Energy          =      -0.1481657545650980 [Eh]
	 Opposite-Spin Energy      =      -0.5187664904207829 [Eh]
	 Correlation Energy        =      -0.6669322449858810 [Eh]
	 Total Energy              =    -154.8126113406370905 [Eh]
	 SCS Total Energy          =    -154.8175874690111868 [Eh]
                               Psi4 1.9.1 release
    Molecular point group: c1

    Geometry (in Bohr), charge = 0, multiplicity = 1:

       Center              X                  Y                   Z               Mass
    ------------   -----------------  -----------------  -----------------  -----------------
         C            3.649115950317     1.092885310136     1.811918541968    12.000000000000
         C            3.714685667418     0.421699943800    -0.944840386015    12.000000000000
         O            2.231314909622    -1.784377673416    -1.296087560407    15.994914619570
         H            2.307421739598    -2.303986217502    -3.030988424406     1.007825032230
         H            4.772459866143     2.782956201261     2.173298427844     1.007825032230
         H            4.407776739000    -0.452349411829     2.948061572842     1.007825032230
         H            1.711245272361     1.444839242098     2.429254272633     1.007825032230
         H            5.662951728790     0.077488219774    -1.567144206664     1.007825032230
         H            2.966692382713     1.987825588083    -2.086346459633     1.007825032230
         C           -3.299852988357     2.118570069525    -0.901304875537    12.000000000000
         C           -4.108326957707    -0.476273344578    -0.024738404708    12.000000000000
         O           -2.374291588274    -1.578728227813     1.647652208787    15.994914619570
         H           -0.815995079329    -1.870976262841     0.731167163284     1.007825032230
         H           -4.723464936888     2.978639231278    -2.124537824629     1.007825032230
         H           -1.530033765012     2.011110793400    -1.964838959493     1.007825032230
         H           -2.994127426602     3.361858681986     0.718133722196     1.007825032230
         H           -4.447738777375    -1.701479167744    -1.672519114872     1.007825032230
         H           -5.907104344199    -0.352382899792     0.987723940980     1.007825032230

  Charge       = 0
  Multiplicity = 1
  Basis Set: AUG-CC-PVTZ
    Blend: AUG-CC-PVTZ
  Basis Set: (AUG-CC-PVTZ AUX)
    Blend: AUG-CC-PVTZ-JKFIT

    Orbital Energies [Eh]
    ---------------------

    Doubly Occupied:

       1A    -20.577649     2A    -20.527293     3A    -11.286724
       4A    -11.258649     5A    -11.215662     6A    -11.207189
       7A     -1.383393     8A     -1.338723     9A     -1.025097
      10A     -1.000180    11A     -0.846037    12A     -0.831864
      13A     -0.723905    14A     -0.677129    15A     -0.657837
      16A     -0.610095    17A     -0.596792    18A     -0.586140
      19A     -0.542025    20A     -0.535561    21A     -0.531904
      22A     -0.514566    23A     -0.503067    24A     -0.463604
      25A     -0.454179    26A     -0.421389

  @DF-RHF Final Energy:  -308.29312795324756

   => Energetics <=

    Nuclear Repulsion Energy =            261.5584255164046681
    One-Electron Energy =                -939.0698015139444124
    Two-Electron Energy =                 369.2182480442921815
    Total Energy =                       -308.2931279532475628
 Dipole X            :          0.7121869           -0.0000000            0.7121869
 Dipole Y            :          0.4796129           -0.0000113            0.4796015
 Dipole Z            :         -1.1275663           -0.0000094           -1.1275758
 Magnitude           :                                                    1.4172702
  Basis Set: (AUG-CC-PVTZ AUX)
    Blend: AUG-CC-PVTZ-RI
	 Reference Energy          =    -308.2931279532475628 [Eh]
	 Singles Energy            =      -0.0000000000000000 [Eh]
	 Same-Spin Energy          =      -0.3001623155367392 [Eh]
	 Opposite-Spin Energy      =      -1.0406422980861785 [Eh]
	 Correlation Energy        =      -1.3408046136229177 [Eh]
	 Total Energy              =    -309.6339325668704987 [Eh]

	 ================> DF-SCS-MP2 Energies <==================
	-----------------------------------------------------------
	 SCS Same-Spin Scale       =       0.3333333333333333 [-]
	 SCS Opposite-Spin Scale   =       1.2000000000000000 [-]
	 SCS Same-Spin Energy      =      -0.1000541051789131 [Eh]
	 SCS Opposite-Spin Energy  =      -1.2487707577034142 [Eh]
	 SCS Correlation Energy    =      -1.3488248628823272 [Eh]
	 SCS Total Energy          =    -309.6419528161299013 [Eh]
	-----------------------------------------------------------

*** Psi4 exiting successfully. Buy a developer a beer!
