                               Psi4 1.9.1 release

  ==> Input File <==

--------------------------------------------------------------------------
MEMORY 10 GB

molecule dimer {
0 1
C    1.309013   1.134015  -0.188218
C    1.724146  -0.315014  -0.195909
O    3.069051  -0.501508   0.179173
H    3.209050  -0.059378   1.020349
H    0.271243   1.257351  -0.509886
H    1.953170   1.720116  -0.846698
H    1.388592   1.553026   0.820473
H    1.634571  -0.733745  -1.202623
H    1.051625  -0.905042   0.447878
--
0 1
C   -1.823592  -1.296449  -0.312637
C   -1.984814  -0.112096   0.605856
O   -2.156708   1.096874  -0.098750
H   -2.908238   1.000912  -0.689351
H   -1.633465  -2.212113   0.251297
H   -0.989131  -1.136448  -0.999502
H   -2.726588  -1.455432  -0.909543
H   -1.083812   0.024514   1.212183
H   -2.814275  -0.279428   1.307478

units ang
no_reorient
no_com
symmetry c1
}

set {
basis        aug-cc-pVTZ
scf_type     df
}

energy("mp2", bsse_type="cp")
--------------------------------------------------------------------------

                               Psi4 1.9.1 release
    Molecular point group: c1
  Charge       = 0
  Multiplicity = 1
  Basis Set: AUG-CC-PVTZ
    Blend: AUG-CC-PVTZ
  Basis Set: (AUG-CC-PVTZ AUX)
    Blend: AUG-CC-PVTZ-JKFIT
  @DF-RHF Final Energy:  -154.14510853229024
    Total Energy =                       -154.1451085322902372
 Dipole X            :         98.4011009          -98.7563484           -0.3552475
 Dipole Y            :          6.4446133           -7.0567532           -0.6121399
 Dipole Z            :         -2.2318332            2.1578329           -0.0740003
 Magnitude           :                                                    0.7116123
  Basis Set: (AUG-CC-PVTZ AUX)
    Blend: AUG-CC-PVTZ-RI
	 Reference Energy          =    -154.1451085322902372 [Eh]
	 Singles Energy            =      -0.0000000000000000 [Eh]
	 Same-Spin Energy          =      -0.1482297502277403 [Eh]
	 Opposite-Spin Energy      =      -0.5185234315500755 [Eh]
	 Correlation Energy        =      -0.6667531817778158 [Eh]
	 Total Energy              =    -154.8118617140680442 [Eh]
	 SCS Total Energy          =    -154.8167465668929026 [Eh]
                               Psi4 1.9.1 release
    Molecular point group: c1
  Multiplicity = 1
  Basis Set: AUG-CC-PVTZ
    Blend: AUG-CC-PVTZ
  Basis Set: (AUG-CC-PVTZ AUX)
    Blend: AUG-CC-PVTZ-JKFIT
  @DF-RHF Final Energy:  -154.14494324648643
    Total Energy =                       -154.1449432464864344
  Basis Set: (AUG-CC-PVTZ AUX)
	 Singles Energy            =      -0.0000000000000000 [Eh]
	 Same-Spin Energy          =      -0.1482474167417351 [Eh]
	 Opposite-Spin Energy      =      -0.5186131792544728 [Eh]
	 Correlation Energy        =      -0.6668605959962079 [Eh]
	 Total Energy              =    -154.8118038424826466 [Eh]
	 SCS Total Energy          =    -154.8166948671723731 [Eh]
                               Psi4 1.9.1 release
    Molecular point group: c1

    Geometry (in Bohr), charge = 0, multiplicity = 1:

       Center              X                  Y                   Z               Mass
    ------------   -----------------  -----------------  -----------------  -----------------
         C            2.473676064664     2.142977772161    -0.355680471881    12.000000000000
         C            3.258163740304    -0.595290185685    -0.370214355512    12.000000000000
         O            5.799665855062    -0.947712769726     0.338587899077    15.994914619570
         H            6.064225622900    -0.112208157877     1.928180162385     1.007825032230
         H            0.512574983448     2.376049033571    -0.963544895205     1.007825032230
         H            3.690956376460     3.250548144018    -1.600027330973     1.007825032230
         H            2.624058580002     2.934793805715     1.550469263333     1.007825032230
         H            3.088891522616    -1.386577095924    -2.272628102176     1.007825032230
         H            1.987283236685    -1.710281512037     0.846366757618     1.007825032230
         C           -3.446089444576    -2.449933545624    -0.590798306685    12.000000000000
         C           -3.750754869974    -0.211830739759     1.144901911465    12.000000000000
         O           -4.075587452584     2.072791454135    -0.186610454889    15.994914619570
         H           -5.495773327649     1.891449555684    -1.302684594310     1.007825032230
         H           -3.086801485521    -4.180287728565     0.474882506149     1.007825032230
         H           -1.869186692200    -2.147575475824    -1.888785041847     1.007825032230
         H           -5.152504576960    -2.750367874227    -1.718787169327     1.007825032230
         H           -2.048107851485     0.046324746239     2.290693883936     1.007825032230
         H           -5.318208991723    -0.528042391784     2.470775335061     1.007825032230

  Charge       = 0
  Multiplicity = 1
  Basis Set: AUG-CC-PVTZ
    Blend: AUG-CC-PVTZ
  Basis Set: (AUG-CC-PVTZ AUX)
    Blend: AUG-CC-PVTZ-JKFIT

    Orbital Energies [Eh]
    ---------------------

    Doubly Occupied:

       1A    -20.562527     2A    -20.551481     3A    -11.279420
       4A    -11.268874     5A    -11.223338     6A    -11.207407
       7A     -1.369933     8A     -1.358702     9A     -1.021244
      10A     -1.006622    11A     -0.855345    12A     -0.842597
      13A     -0.696106    14A     -0.681197    15A     -0.633964
      16A     -0.623478    17A     -0.616286    18A     -0.606333
      19A     -0.551324    20A     -0.536996    21A     -0.531542
      22A     -0.514603    23A     -0.487991    24A     -0.476275
      25A     -0.449413    26A     -0.437037

  @DF-RHF Final Energy:  -308.28727874500447

   => Energetics <=

    Nuclear Repulsion Energy =            250.3218815504114048
    One-Electron Energy =                -916.4382456086608499
    Two-Electron Energy =                 357.8290853132450025
    Total Energy =                       -308.2872787450044711
 Dipole X            :         -0.9705931            0.0000076           -0.9705855
 Dipole Y            :         -0.1894458           -0.0000057           -0.1894515
 Dipole Z            :          0.2332392           -0.0000170            0.2332222
 Magnitude           :                                                    1.0160318
  Basis Set: (AUG-CC-PVTZ AUX)
    Blend: AUG-CC-PVTZ-RI
	 Reference Energy          =    -308.2872787450044711 [Eh]
	 Singles Energy            =      -0.0000000000000000 [Eh]
	 Same-Spin Energy          =      -0.2993223396034583 [Eh]
	 Opposite-Spin Energy      =      -1.0399200285488170 [Eh]
	 Correlation Energy        =      -1.3392423681522754 [Eh]
	 Total Energy              =    -309.6265211131567412 [Eh]

	 ================> DF-SCS-MP2 Energies <==================
	-----------------------------------------------------------
	 SCS Same-Spin Scale       =       0.3333333333333333 [-]
	 SCS Opposite-Spin Scale   =       1.2000000000000000 [-]
	 SCS Same-Spin Energy      =      -0.0997741132011528 [Eh]
	 SCS Opposite-Spin Energy  =      -1.2479040342585803 [Eh]
	 SCS Correlation Energy    =      -1.3476781474597330 [Eh]
	 SCS Total Energy          =    -309.6349568924642313 [Eh]
	-----------------------------------------------------------

*** Psi4 exiting successfully. Buy a developer a beer!
