                               Psi4 1.9.1 release

  ==> Input File <==

--------------------------------------------------------------------------
MEMORY 10 GB

molecule dimer {
0 1
C   -1.193277  -0.706714   0.501279
C   -2.076043  -0.011608  -0.503934
O   -3.268800   0.479011   0.065369
H   -3.727558  -0.256160   0.479429
H   -0.252172  -1.025888   0.044345
H   -1.690324  -1.592920   0.908402
H   -0.966587  -0.037044   1.334894
H   -2.289579  -0.682301  -1.348864
H   -1.564720   0.860285  -0.921796
--
0 1
C    1.909877   1.326801  -0.067993
C    2.404113   0.002593   0.440661
O    2.144878  -0.968276  -0.551699
H    2.497641  -1.812724  -0.264602
H    2.090757   2.116631   0.662536
H    0.836941   1.282336  -0.267517
H    2.415726   1.591170  -0.998192
H    1.893826  -0.254203   1.381037
H    3.479404   0.058505   0.660893

units ang
no_reorient
no_com
symmetry c1
}

set {
basis        aug-cc-pVTZ
scf_type     df
}

energy("mp2", bsse_type="cp")
--------------------------------------------------------------------------

                               Psi4 1.9.1 release
    Molecular point group: c1
  Charge       = 0
  Multiplicity = 1
  Basis Set: AUG-CC-PVTZ
    Blend: AUG-CC-PVTZ
  Basis Set: (AUG-CC-PVTZ AUX)
    Blend: AUG-CC-PVTZ-JKFIT
  @DF-RHF Final Energy:  -154.14564676884874
    Total Energy =                       -154.1456467688487351
 Dipole X            :       -105.9958932          106.3108121            0.3149188
 Dipole Y            :         -6.1646966            6.0695565           -0.0951400
 Dipole Z            :          2.4665710           -1.8962060            0.5703650
 Magnitude           :                                                    0.6584389
  Basis Set: (AUG-CC-PVTZ AUX)
    Blend: AUG-CC-PVTZ-RI
	 Reference Energy          =    -154.1456467688487351 [Eh]
	 Singles Energy            =      -0.0000000000000000 [Eh]
	 Same-Spin Energy          =      -0.1481416259670752 [Eh]
	 Opposite-Spin Energy      =      -0.5183640946429084 [Eh]
	 Correlation Energy        =      -0.6665057206099836 [Eh]
	 Total Energy              =    -154.8121524894587253 [Eh]
	 SCS Total Energy          =    -154.8170642244092505 [Eh]
                               Psi4 1.9.1 release
    Molecular point group: c1
  Multiplicity = 1
  Basis Set: AUG-CC-PVTZ
    Blend: AUG-CC-PVTZ
  Basis Set: (AUG-CC-PVTZ AUX)
    Blend: AUG-CC-PVTZ-JKFIT
  @DF-RHF Final Energy:  -154.14504110966274
    Total Energy =                       -154.1450411096627420
  Basis Set: (AUG-CC-PVTZ AUX)
	 Singles Energy            =      -0.0000000000000000 [Eh]
	 Same-Spin Energy          =      -0.1481997195664980 [Eh]
	 Opposite-Spin Energy      =      -0.5183500398089436 [Eh]
	 Correlation Energy        =      -0.6665497593754416 [Eh]
	 Total Energy              =    -154.8115908690381843 [Eh]
	 SCS Total Energy          =    -154.8164610639556429 [Eh]
                               Psi4 1.9.1 release
    Molecular point group: c1

    Geometry (in Bohr), charge = 0, multiplicity = 1:

       Center              X                  Y                   Z               Mass
    ------------   -----------------  -----------------  -----------------  -----------------
         C           -2.254966721808    -1.335495909027     0.947280022443    12.000000000000
         C           -3.923152694674    -0.021935940864    -0.952297245306    12.000000000000
         O           -6.177136758897     0.905199601082     0.123529507095    15.994914619570
         H           -7.044063736759    -0.484072244297     0.905989506602     1.007825032230
         H           -0.476536016509    -1.938647355394     0.083799905033     1.007825032230
         H           -3.194249423288    -3.010182539764     1.716630991818     1.007825032230
         H           -1.826584706428    -0.070003014591     2.522584066517     1.007825032230
         H           -4.326677252600    -1.289362025126    -2.548983540490     1.007825032230
         H           -2.956892263026     1.625703039839    -1.741941983543     1.007825032230
         C            3.609144463311     2.507290512984    -0.128488148448    12.000000000000
         C            4.543115144653     0.004900059843     0.832728604170    12.000000000000
         O            4.053231992520    -1.829776453854    -1.042560013689    15.994914619570
         H            4.719857449715    -3.425551901044    -0.500025312248     1.007825032230
         H            3.950958124884     3.999852898654     1.252011588256     1.007825032230
         H            1.581589273167     2.423263840815    -0.505533863904     1.007825032230
         H            4.565060534148     3.006875519045    -1.886309500623     1.007825032230
         H            3.578812469271    -0.480374050270     2.609781699124     1.007825032230
         H            6.575120639822     0.110558426970     1.248906768232     1.007825032230

  Charge       = 0
  Multiplicity = 1
  Basis Set: AUG-CC-PVTZ
    Blend: AUG-CC-PVTZ
  Basis Set: (AUG-CC-PVTZ AUX)
    Blend: AUG-CC-PVTZ-JKFIT

    Orbital Energies [Eh]
    ---------------------

    Doubly Occupied:

       1A    -20.561554     2A    -20.550607     3A    -11.277636
       4A    -11.267141     5A    -11.213598     6A    -11.208800
       7A     -1.368085     8A     -1.357371     9A     -1.018482
      10A     -1.007015    11A     -0.842001    12A     -0.837286
      13A     -0.708881    14A     -0.681754    15A     -0.653549
      16A     -0.617624    17A     -0.606128    18A     -0.579143
      19A     -0.539536    20A     -0.536318    21A     -0.528701
      22A     -0.516869    23A     -0.493270    24A     -0.475037
      25A     -0.444626    26A     -0.436879

  @DF-RHF Final Energy:  -308.28879376821135

   => Energetics <=

    Nuclear Repulsion Energy =            245.8154535182256950
    One-Electron Energy =                -907.5527098430292199
    Two-Electron Energy =                 353.4484625565921760
    Total Energy =                       -308.2887937682113488
 Dipole X            :          0.6811548           -0.0000019            0.6811530
 Dipole Y            :         -0.7617592           -0.0000019           -0.7617610
 Dipole Z            :          0.5618050            0.0000057            0.5618106
 Magnitude           :                                                    1.1661391
  Basis Set: (AUG-CC-PVTZ AUX)
    Blend: AUG-CC-PVTZ-RI
	 Reference Energy          =    -308.2887937682113488 [Eh]
	 Singles Energy            =      -0.0000000000000000 [Eh]
	 Same-Spin Energy          =      -0.2986429045849832 [Eh]
	 Opposite-Spin Energy      =      -1.0389233307361787 [Eh]
	 Correlation Energy        =      -1.3375662353211619 [Eh]
	 Total Energy              =    -309.6263600035325112 [Eh]

	 ================> DF-SCS-MP2 Energies <==================
	-----------------------------------------------------------
	 SCS Same-Spin Scale       =       0.3333333333333333 [-]
	 SCS Opposite-Spin Scale   =       1.2000000000000000 [-]
	 SCS Same-Spin Energy      =      -0.0995476348616610 [Eh]
	 SCS Opposite-Spin Energy  =      -1.2467079968834145 [Eh]
	 SCS Correlation Energy    =      -1.3462556317450756 [Eh]
	 SCS Total Energy          =    -309.6350493999564151 [Eh]
	-----------------------------------------------------------

*** Psi4 exiting successfully. Buy a developer a beer!
