                               Psi4 1.9.1 release

  ==> Input File <==

--------------------------------------------------------------------------
MEMORY 10 GB

molecule dimer {
0 1
C   -1.976023   0.746718   0.790972
C   -1.792710   0.038582  -0.526085
O   -1.227247  -1.248106  -0.370351
H   -1.796923  -1.759699   0.209561
H   -2.400634   1.742179   0.645312
H   -1.012510   0.856037   1.292757
H   -2.651909   0.189921   1.447987
H   -1.093704   0.597995  -1.152012
H   -2.746235  -0.021497  -1.070103
--
0 1
C    1.976026  -0.746717   0.790972
C    1.792708  -0.038583  -0.526087
O    1.227246   1.248105  -0.370352
H    1.796925   1.759702   0.209554
H    2.400642  -1.742175   0.645313
H    1.012514  -0.856039   1.292757
H    2.651910  -0.189913   1.447983
H    1.093696  -0.597994  -1.152008
H    2.746232   0.021493  -1.070106

units ang
no_reorient
no_com
symmetry c1
}

set {
basis        aug-cc-pVTZ
scf_type     df
}

energy("mp2", bsse_type="cp")
--------------------------------------------------------------------------

                               Psi4 1.9.1 release
    Molecular point group: c1
  Charge       = 0
  Multiplicity = 1
  Basis Set: AUG-CC-PVTZ
    Blend: AUG-CC-PVTZ
  Basis Set: (AUG-CC-PVTZ AUX)
    Blend: AUG-CC-PVTZ-JKFIT
  @DF-RHF Final Energy:  -154.14509279206064
    Total Energy =                       -154.1450927920606375
 Dipole X            :        -82.8203619           83.3979433            0.5775813
 Dipole Y            :         -7.2139285            6.9317309           -0.2821976
 Dipole Z            :          0.3133622           -0.0000246            0.3133377
 Magnitude           :                                                    0.7151337
  Basis Set: (AUG-CC-PVTZ AUX)
    Blend: AUG-CC-PVTZ-RI
	 Reference Energy          =    -154.1450927920606375 [Eh]
	 Singles Energy            =      -0.0000000000000000 [Eh]
	 Same-Spin Energy          =      -0.1482320315072899 [Eh]
	 Opposite-Spin Energy      =      -0.5186134037395320 [Eh]
	 Correlation Energy        =      -0.6668454352468219 [Eh]
	 Total Energy              =    -154.8119382273074507 [Eh]
	 SCS Total Energy          =    -154.8168395537171591 [Eh]
                               Psi4 1.9.1 release
    Molecular point group: c1
  Multiplicity = 1
  Basis Set: AUG-CC-PVTZ
    Blend: AUG-CC-PVTZ
  Basis Set: (AUG-CC-PVTZ AUX)
    Blend: AUG-CC-PVTZ-JKFIT
  @DF-RHF Final Energy:  -154.14509275498807
    Total Energy =                       -154.1450927549880703
  Basis Set: (AUG-CC-PVTZ AUX)
	 Singles Energy            =      -0.0000000000000000 [Eh]
	 Same-Spin Energy          =      -0.1482320379198678 [Eh]
	 Opposite-Spin Energy      =      -0.5186134158372503 [Eh]
	 Correlation Energy        =      -0.6668454537571180 [Eh]
	 Total Energy              =    -154.8119382087451754 [Eh]
	 SCS Total Energy          =    -154.8168395332994010 [Eh]
                               Psi4 1.9.1 release
    Molecular point group: c1

    Geometry (in Bohr), charge = 0, multiplicity = 1:

       Center              X                  Y                   Z               Mass
    ------------   -----------------  -----------------  -----------------  -----------------
         C           -3.734142287606     1.411092512950     1.494720452906    12.000000000000
         C           -3.387730922370     0.072909413372    -0.994156568711    12.000000000000
         O           -2.319160718290    -2.358578515541    -0.699861960289    15.994914619570
         H           -3.395692338536    -3.325349173242     0.396012896577     1.007825032230
         H           -4.536540787462     3.292241171524     1.219462945471     1.007825032230
         H           -1.913366599287     1.617675483259     2.442956676768     1.007825032230
         H           -5.011381719637     0.358898675473     2.736298863223     1.007825032230
         H           -2.066801022318     1.130046774393    -2.176987173241     1.007825032230
         H           -5.189632026147    -0.040623442519    -2.022201596031     1.007825032230
         C            3.734147956784    -1.411090623223     1.494720452906    12.000000000000
         C            3.387727142917    -0.072911303099    -0.994160348164    12.000000000000
         O            2.319158828564     2.358576625815    -0.699863850016    15.994914619570
         H            3.395696117988     3.325354842420     0.395999668494     1.007825032230
         H            4.536555905271    -3.292233612619     1.219464835198     1.007825032230
         H            1.913374158192    -1.617679262711     2.442956676768     1.007825032230
         H            5.011383609363    -0.358883557664     2.736291304319     1.007825032230
         H            2.066785904509    -1.130044884667    -2.176979614336     1.007825032230
         H            5.189626356968     0.040615883614    -2.022207265209     1.007825032230

  Charge       = 0
  Multiplicity = 1
  Basis Set: AUG-CC-PVTZ
    Blend: AUG-CC-PVTZ
  Basis Set: (AUG-CC-PVTZ AUX)
    Blend: AUG-CC-PVTZ-JKFIT

    Orbital Energies [Eh]
    ---------------------

    Doubly Occupied:

       1A    -20.550563     2A    -20.550563     3A    -11.262149
       4A    -11.262148     5A    -11.207832     6A    -11.207832
       7A     -1.357594     8A     -1.355369     9A     -1.005351
      10A     -1.004686    11A     -0.841589    12A     -0.836419
      13A     -0.689335    14A     -0.674008    15A     -0.623066
      16A     -0.611406    17A     -0.606220    18A     -0.600757
      19A     -0.542312    20A     -0.531401    21A     -0.519628
      22A     -0.513072    23A     -0.474659    24A     -0.469430
      25A     -0.438303    26A     -0.434862

  @DF-RHF Final Energy:  -308.28885967664138

   => Energetics <=

    Nuclear Repulsion Energy =            260.8685077668981194
    One-Electron Energy =                -937.9736248403900163
    Two-Electron Energy =                 368.8162573968505171
    Total Energy =                       -308.2888596766413798
 Dipole X            :         -0.0000023            0.0000038            0.0000014
 Dipole Y            :         -0.0000006            0.0000038            0.0000031
 Dipole Z            :          0.5707951            0.0000057            0.5708008
 Magnitude           :                                                    0.5708008
  Basis Set: (AUG-CC-PVTZ AUX)
    Blend: AUG-CC-PVTZ-RI
	 Reference Energy          =    -308.2888596766413798 [Eh]
	 Singles Energy            =      -0.0000000000000000 [Eh]
	 Same-Spin Energy          =      -0.2996346288459742 [Eh]
	 Opposite-Spin Energy      =      -1.0402454914704733 [Eh]
	 Correlation Energy        =      -1.3398801203164474 [Eh]
	 Total Energy              =    -309.6287397969578024 [Eh]

	 ================> DF-SCS-MP2 Energies <==================
	-----------------------------------------------------------
	 SCS Same-Spin Scale       =       0.3333333333333333 [-]
	 SCS Opposite-Spin Scale   =       1.2000000000000000 [-]
	 SCS Same-Spin Energy      =      -0.0998782096153247 [Eh]
	 SCS Opposite-Spin Energy  =      -1.2482945897645679 [Eh]
	 SCS Correlation Energy    =      -1.3481727993798927 [Eh]
	 SCS Total Energy          =    -309.6370324760212611 [Eh]
	-----------------------------------------------------------

*** Psi4 exiting successfully. Buy a developer a beer!
