                               Psi4 1.9.1 release

  ==> Input File <==

--------------------------------------------------------------------------
MEMORY 10 GB

molecule dimer {
0 1
C   -2.241596  -1.213442   0.019299
C   -2.033926   0.202492   0.493150
O   -1.554852   1.049665  -0.527483
H   -2.164128   1.010118  -1.269039
H   -2.578892  -1.856923   0.834362
H   -1.313318  -1.624076  -0.384115
H   -2.999941  -1.253496  -0.768382
H   -1.276352   0.234498   1.282498
H   -2.960509   0.601064   0.930361
--
0 1
C    1.691556   1.182242   0.275601
C    1.516675  -0.254690  -0.141996
O    2.732470  -0.967325  -0.183222
H    3.173383  -0.855838   0.662717
H    0.736434   1.709760   0.234921
H    2.398672   1.689296  -0.384159
H    2.077835   1.248017   1.298004
H    1.097149  -0.307138  -1.149818
H    0.792479  -0.753615   0.521962

units ang
no_reorient
no_com
symmetry c1
}

set {
basis        aug-cc-pVTZ
scf_type     df
}

energy("mp2", bsse_type="cp")
--------------------------------------------------------------------------

                               Psi4 1.9.1 release
    Molecular point group: c1
  Charge       = 0
  Multiplicity = 1
  Basis Set: AUG-CC-PVTZ
    Blend: AUG-CC-PVTZ
  Basis Set: (AUG-CC-PVTZ AUX)
    Blend: AUG-CC-PVTZ-JKFIT
  @DF-RHF Final Energy:  -154.14497881918749
    Total Energy =                       -154.1449788191874859
 Dipole X            :        -97.3604446           97.1037621           -0.2566825
 Dipole Y            :         -0.6301251            1.0529441            0.4228189
 Dipole Z            :         -0.4638205            0.9816768            0.5178563
 Magnitude           :                                                    0.7161263
  Basis Set: (AUG-CC-PVTZ AUX)
    Blend: AUG-CC-PVTZ-RI
	 Reference Energy          =    -154.1449788191874859 [Eh]
	 Singles Energy            =      -0.0000000000000000 [Eh]
	 Same-Spin Energy          =      -0.1482304230739303 [Eh]
	 Opposite-Spin Energy      =      -0.5184412046507598 [Eh]
	 Correlation Energy        =      -0.6666716277246900 [Eh]
	 Total Energy              =    -154.8116504469121821 [Eh]
	 SCS Total Energy          =    -154.8165184057930333 [Eh]
                               Psi4 1.9.1 release
    Molecular point group: c1
  Multiplicity = 1
  Basis Set: AUG-CC-PVTZ
    Blend: AUG-CC-PVTZ
  Basis Set: (AUG-CC-PVTZ AUX)
    Blend: AUG-CC-PVTZ-JKFIT
  @DF-RHF Final Energy:  -154.14513512033039
    Total Energy =                       -154.1451351203303943
  Basis Set: (AUG-CC-PVTZ AUX)
	 Singles Energy            =      -0.0000000000000000 [Eh]
	 Same-Spin Energy          =      -0.1482152027313049 [Eh]
	 Opposite-Spin Energy      =      -0.5184349656854512 [Eh]
	 Correlation Energy        =      -0.6666501684167562 [Eh]
	 Total Energy              =    -154.8117852887471599 [Eh]
	 SCS Total Energy          =    -154.8166621467300388 [Eh]
                               Psi4 1.9.1 release
    Molecular point group: c1

    Geometry (in Bohr), charge = 0, multiplicity = 1:

       Center              X                  Y                   Z               Mass
    ------------   -----------------  -----------------  -----------------  -----------------
         C           -4.236002523922    -2.293073049128     0.036469824495    12.000000000000
         C           -3.843563099448     0.382654422596     0.931918438770    12.000000000000
         O           -2.938244445620     1.983579373479    -0.996798405835    15.994914619570
         H           -4.089609220435     1.908846374395    -2.398136152525     1.007825032230
         H           -4.873399587134    -3.509075906064     1.576715669489     1.007825032230
         H           -2.481811335634    -3.069058846929    -0.725872150680     1.007825032230
         H           -5.669066882532    -2.368764139357    -1.452031539732     1.007825032230
         H           -2.411955719680     0.443136996968     2.423569976447     1.007825032230
         H           -5.594551201953     1.135846343872     1.758127487807     1.007825032230
         C            3.196577565875     2.234113594014     0.520810409902    12.000000000000
         C            2.866100371329    -0.481294346893    -0.268333550911    12.000000000000
         O            5.163619946030    -1.827979324308    -0.346239400159    15.994914619570
         H            5.996824761184    -1.617299427760     1.252353628685     1.007825032230
         H            1.391658569475     3.230978140263     0.443936351119     1.007825032230
         H            4.532833144804     3.192306784831    -0.725955298630     1.007825032230
         H            3.926539083891     2.358410329916     2.452872069749     1.007825032230
         H            2.073311128820    -0.580406702721    -2.172841114122     1.007825032230
         H            1.497568270177    -1.424125954037     0.986365227896     1.007825032230

  Charge       = 0
  Multiplicity = 1
  Basis Set: AUG-CC-PVTZ
    Blend: AUG-CC-PVTZ
  Basis Set: (AUG-CC-PVTZ AUX)
    Blend: AUG-CC-PVTZ-JKFIT

    Orbital Energies [Eh]
    ---------------------

    Doubly Occupied:

       1A    -20.562254     2A    -20.547287     3A    -11.279264
       4A    -11.262573     5A    -11.221998     6A    -11.203627
       7A     -1.369739     8A     -1.353977     9A     -1.019711
      10A     -1.002548    11A     -0.854557    12A     -0.837549
      13A     -0.695846    14A     -0.675528    15A     -0.633674
      16A     -0.619859    17A     -0.612773    18A     -0.603251
      19A     -0.550953    20A     -0.532280    21A     -0.530369
      22A     -0.511635    23A     -0.487793    24A     -0.470657
      25A     -0.449169    26A     -0.432399

  @DF-RHF Final Energy:  -308.28825425525781

   => Energetics <=

    Nuclear Repulsion Energy =            251.4459696064319587
    One-Electron Energy =                -918.8259027162599750
    Two-Electron Energy =                 359.0916788545702047
    Total Energy =                       -308.2882542552578116
 Dipole X            :         -0.9484328            0.0000189           -0.9484139
 Dipole Y            :          0.0258648           -0.0000019            0.0258630
 Dipole Z            :          0.4517344           -0.0000076            0.4517268
 Magnitude           :                                                    1.0508163
  Basis Set: (AUG-CC-PVTZ AUX)
    Blend: AUG-CC-PVTZ-RI
	 Reference Energy          =    -308.2882542552578116 [Eh]
	 Singles Energy            =      -0.0000000000000000 [Eh]
	 Same-Spin Energy          =      -0.2990404945830073 [Eh]
	 Opposite-Spin Energy      =      -1.0393966094931026 [Eh]
	 Correlation Energy        =      -1.3384371040761098 [Eh]
	 Total Energy              =    -309.6266913593339041 [Eh]

	 ================> DF-SCS-MP2 Energies <==================
	-----------------------------------------------------------
	 SCS Same-Spin Scale       =       0.3333333333333333 [-]
	 SCS Opposite-Spin Scale   =       1.2000000000000000 [-]
	 SCS Same-Spin Energy      =      -0.0996801648610024 [Eh]
	 SCS Opposite-Spin Energy  =      -1.2472759313917232 [Eh]
	 SCS Correlation Energy    =      -1.3469560962527256 [Eh]
	 SCS Total Energy          =    -309.6352103515105227 [Eh]
	-----------------------------------------------------------

*** Psi4 exiting successfully. Buy a developer a beer!
