                               Psi4 1.9.1 release

  ==> Input File <==

--------------------------------------------------------------------------
MEMORY 10 GB

molecule dimer {
0 1
C    1.974603   1.240004  -0.086538
C    2.429081  -0.175606   0.167570
O    1.552014  -1.135343  -0.377610
H    1.457663  -0.963065  -1.318322
H    2.668199   1.961348   0.350216
H    0.984069   1.410923   0.341278
H    1.917815   1.443984  -1.160355
H    2.459990  -0.378546   1.241808
H    3.451501  -0.320847  -0.209464
--
0 1
C   -1.368389  -0.207777   1.160841
C   -1.681259  -0.174613  -0.312999
O   -2.993584   0.262357  -0.584871
H   -3.122636   1.110702  -0.153512
H   -0.365166  -0.605456   1.327451
H   -2.087134  -0.834449   1.692440
H   -1.413450   0.797739   1.593083
H   -1.601195  -1.178377  -0.738026
H   -0.941314   0.447882  -0.839997

units ang
no_reorient
no_com
symmetry c1
}

set {
basis        aug-cc-pVTZ
scf_type     df
}

energy("mp2", bsse_type="cp")
--------------------------------------------------------------------------

                               Psi4 1.9.1 release
    Molecular point group: c1
  Charge       = 0
  Multiplicity = 1
  Basis Set: AUG-CC-PVTZ
    Blend: AUG-CC-PVTZ
  Basis Set: (AUG-CC-PVTZ AUX)
    Blend: AUG-CC-PVTZ-JKFIT
  @DF-RHF Final Energy:  -154.14501983690019
    Total Energy =                       -154.1450198369001896
 Dipole X            :         98.3399534          -97.8452094            0.4947440
 Dipole Y            :          1.1646078           -0.8644420            0.3001658
 Dipole Z            :         -5.7979083            6.2162976            0.4183892
 Magnitude           :                                                    0.7140873
  Basis Set: (AUG-CC-PVTZ AUX)
    Blend: AUG-CC-PVTZ-RI
	 Reference Energy          =    -154.1450198369001896 [Eh]
	 Singles Energy            =      -0.0000000000000000 [Eh]
	 Same-Spin Energy          =      -0.1482250530937893 [Eh]
	 Opposite-Spin Energy      =      -0.5183998608865831 [Eh]
	 Correlation Energy        =      -0.6666249139803724 [Eh]
	 Total Energy              =    -154.8116447508805607 [Eh]
	 SCS Total Energy          =    -154.8165080209953430 [Eh]
                               Psi4 1.9.1 release
    Molecular point group: c1
  Multiplicity = 1
  Basis Set: AUG-CC-PVTZ
    Blend: AUG-CC-PVTZ
  Basis Set: (AUG-CC-PVTZ AUX)
    Blend: AUG-CC-PVTZ-JKFIT
  @DF-RHF Final Energy:  -154.14514477314663
    Total Energy =                       -154.1451447731466260
  Basis Set: (AUG-CC-PVTZ AUX)
	 Singles Energy            =      -0.0000000000000000 [Eh]
	 Same-Spin Energy          =      -0.1482135964437263 [Eh]
	 Opposite-Spin Energy      =      -0.5185003492032376 [Eh]
	 Correlation Energy        =      -0.6667139456469640 [Eh]
	 Total Energy              =    -154.8118587187935873 [Eh]
	 SCS Total Energy          =    -154.8167497243384219 [Eh]
                               Psi4 1.9.1 release
    Molecular point group: c1

    Geometry (in Bohr), charge = 0, multiplicity = 1:

       Center              X                  Y                   Z               Mass
    ------------   -----------------  -----------------  -----------------  -----------------
         C            3.731458876507     2.343267954472    -0.163533119445    12.000000000000
         C            4.590297826553    -0.331847245987     0.316661406843    12.000000000000
         O            2.932881402876    -2.145487328456    -0.713579482234    15.994914619570
         H            2.754583853213    -1.819929091014    -2.491267525166     1.007825032230
         H            5.042165358220     3.706410556714     0.661812324753     1.007825032230
         H            1.859620898553     2.666258054109     0.644921952644     1.007825032230
         H            3.624145109295     2.728734289543    -2.192753158306     1.007825032230
         H            4.648707371365    -0.715348265888     2.346677020403     1.007825032230
         H            6.522391611744    -0.606312958175    -0.395829593143     1.007825032230
         C           -2.585880443089    -0.392641625169     2.193671565203    12.000000000000
         C           -3.177119055961    -0.329970747945    -0.591482387542    12.000000000000
         O           -5.657053893553     0.495782877097    -1.105246008723    15.994914619570
         H           -5.900926829495     2.098922586998    -0.290095636971     1.007825032230
         H           -0.690063730329    -1.144146021015     2.508518834965     1.007825032230
         H           -3.944111647131    -1.576880075662     3.198248083770     1.007825032230
         H           -2.671033392028     1.507508229597     3.010490565123     1.007825032230
         H           -3.025820023452    -2.226809802539    -1.394667013467     1.007825032230
         H           -1.778825658059     0.846374316522    -1.587364276206     1.007825032230

  Charge       = 0
  Multiplicity = 1
  Basis Set: AUG-CC-PVTZ
    Blend: AUG-CC-PVTZ
  Basis Set: (AUG-CC-PVTZ AUX)
    Blend: AUG-CC-PVTZ-JKFIT

    Orbital Energies [Eh]
    ---------------------

    Doubly Occupied:

       1A    -20.561680     2A    -20.549835     3A    -11.279600
       4A    -11.265635     5A    -11.224097     6A    -11.208516
       7A     -1.369336     8A     -1.356634     9A     -1.020775
      10A     -1.006329    11A     -0.855405    12A     -0.840654
      13A     -0.694633    14A     -0.679615    15A     -0.632851
      16A     -0.623511    17A     -0.614846    18A     -0.605821
      19A     -0.551793    20A     -0.535811    21A     -0.531931
      22A     -0.517581    23A     -0.487329    24A     -0.474027
      25A     -0.450552    26A     -0.433994

  @DF-RHF Final Energy:  -308.28791389595909

   => Energetics <=

    Nuclear Repulsion Energy =            250.8651768759074798
    One-Electron Energy =                -917.5605978954258717
    Two-Electron Energy =                 358.4075071235592418
    Total Energy =                       -308.2879138959590932
 Dipole X            :          0.8946480           -0.0000038            0.8946442
 Dipole Y            :          0.7961094           -0.0000038            0.7961057
 Dipole Z            :          0.0879582           -0.0000076            0.0879507
 Magnitude           :                                                    1.2007946
  Basis Set: (AUG-CC-PVTZ AUX)
    Blend: AUG-CC-PVTZ-RI
	 Reference Energy          =    -308.2879138959590932 [Eh]
	 Singles Energy            =      -0.0000000000000000 [Eh]
	 Same-Spin Energy          =      -0.2988796046935386 [Eh]
	 Opposite-Spin Energy      =      -1.0393032080627689 [Eh]
	 Correlation Energy        =      -1.3381828127563073 [Eh]
	 Total Energy              =    -309.6260967087154086 [Eh]

	 ================> DF-SCS-MP2 Energies <==================
	-----------------------------------------------------------
	 SCS Same-Spin Scale       =       0.3333333333333333 [-]
	 SCS Opposite-Spin Scale   =       1.2000000000000000 [-]
	 SCS Same-Spin Energy      =      -0.0996265348978462 [Eh]
	 SCS Opposite-Spin Energy  =      -1.2471638496753226 [Eh]
	 SCS Correlation Energy    =      -1.3467903845731688 [Eh]
	 SCS Total Energy          =    -309.6347042805322758 [Eh]
	-----------------------------------------------------------

*** Psi4 exiting successfully. Buy a developer a beer!
