                               Psi4 1.9.1 release

  ==> Input File <==

--------------------------------------------------------------------------
MEMORY 10 GB

molecule dimer {
0 1
C   -2.030209   0.997443  -0.592376
C   -1.989538  -0.031828   0.501206
O   -1.814960  -1.297402  -0.098206
H   -1.828193  -1.971728   0.583684
H   -2.150918   1.999901  -0.178206
H   -2.860130   0.800002  -1.272927
H   -1.104947   0.974569  -1.172596
H   -2.918904   0.000104   1.087134
H   -1.163856   0.188909   1.195581
--
0 1
C    1.633417   1.259863   0.300772
C    1.550833  -0.238458   0.213553
O    2.729829  -0.701850  -0.406992
H    2.645768  -1.642561  -0.571650
H    0.748347   1.670689   0.791741
H    1.707554   1.695977  -0.697447
H    2.515552   1.563226   0.867642
H    0.658644  -0.540506  -0.353616
H    1.445112  -0.666676   1.223317

units ang
no_reorient
no_com
symmetry c1
}

set {
basis        aug-cc-pVTZ
scf_type     df
}

energy("mp2", bsse_type="cp")
--------------------------------------------------------------------------

                               Psi4 1.9.1 release
    Molecular point group: c1
  Charge       = 0
  Multiplicity = 1
  Basis Set: AUG-CC-PVTZ
    Blend: AUG-CC-PVTZ
  Basis Set: (AUG-CC-PVTZ AUX)
    Blend: AUG-CC-PVTZ-JKFIT
  @DF-RHF Final Energy:  -154.14552022912196
    Total Energy =                       -154.1455202291219564
 Dipole X            :        -96.2741204           95.7431801           -0.5309402
 Dipole Y            :         -5.2615644            4.9015319           -0.3600324
 Dipole Z            :         -1.9118424            2.0598034            0.1479609
 Magnitude           :                                                    0.6583414
  Basis Set: (AUG-CC-PVTZ AUX)
    Blend: AUG-CC-PVTZ-RI
	 Reference Energy          =    -154.1455202291219564 [Eh]
	 Singles Energy            =      -0.0000000000000000 [Eh]
	 Same-Spin Energy          =      -0.1481372209840899 [Eh]
	 Opposite-Spin Energy      =      -0.5183274627911612 [Eh]
	 Correlation Energy        =      -0.6664646837752510 [Eh]
	 Total Energy              =    -154.8119849128972021 [Eh]
	 SCS Total Energy          =    -154.8168922581327251 [Eh]
                               Psi4 1.9.1 release
    Molecular point group: c1
  Multiplicity = 1
  Basis Set: AUG-CC-PVTZ
    Blend: AUG-CC-PVTZ
  Basis Set: (AUG-CC-PVTZ AUX)
    Blend: AUG-CC-PVTZ-JKFIT
  @DF-RHF Final Energy:  -154.14564703074697
    Total Energy =                       -154.1456470307469715
  Basis Set: (AUG-CC-PVTZ AUX)
	 Singles Energy            =      -0.0000000000000000 [Eh]
	 Same-Spin Energy          =      -0.1481492728602087 [Eh]
	 Opposite-Spin Energy      =      -0.5184707894727767 [Eh]
	 Correlation Energy        =      -0.6666200623329854 [Eh]
	 Total Energy              =    -154.8122670930799529 [Eh]
	 SCS Total Energy          =    -154.8171950690677079 [Eh]
                               Psi4 1.9.1 release
    Molecular point group: c1

    Geometry (in Bohr), charge = 0, multiplicity = 1:

       Center              X                  Y                   Z               Mass
    ------------   -----------------  -----------------  -----------------  -----------------
         C           -3.836538987440     1.884894095755    -1.119428403294    12.000000000000
         C           -3.759681936191    -0.060146203121     0.947142072436    12.000000000000
         O           -3.429777328661    -2.451734454621    -0.185582443877    15.994914619570
         H           -3.454784074479    -3.726025913897     1.103002903812     1.007825032230
         H           -4.064645938318     3.779265168029    -0.336760533913     1.007825032230
         H           -5.404862383206     1.511784679819    -2.405483407701     1.007825032230
         H           -2.088047213146     1.841668500361    -2.215885295807     1.007825032230
         H           -5.515929146503     0.000196531517     2.054385521673     1.007825032230
         H           -2.199369089471     0.356986272634     2.259320650801     1.007825032230
         C            3.086710778667     2.380796025598     0.568376706206    12.000000000000
         C            2.930649636322    -0.450620312424     0.403556683270    12.000000000000
         O            5.158629179332    -1.326304281153    -0.769103415252    15.994914619570
         H            4.999776911500    -3.103990434358    -1.080261939618     1.007825032230
         H            1.414170876808     3.157144650815     1.496173652296     1.007825032230
         H            3.226809404430     3.204932045076    -1.317983817022     1.007825032230
         H            4.753704334348     2.954069012195     1.639605754944     1.007825032230
         H            1.244656774176    -1.021408309167    -0.668237393580     1.007825032230
         H            2.730865900613    -1.259835054416     2.311734094617     1.007825032230

  Charge       = 0
  Multiplicity = 1
  Basis Set: AUG-CC-PVTZ
    Blend: AUG-CC-PVTZ
  Basis Set: (AUG-CC-PVTZ AUX)
    Blend: AUG-CC-PVTZ-JKFIT

    Orbital Energies [Eh]
    ---------------------

    Doubly Occupied:

       1A    -20.562558     2A    -20.551340     3A    -11.279103
       4A    -11.267260     5A    -11.215080     6A    -11.208636
       7A     -1.369277     8A     -1.357781     9A     -1.020542
      10A     -1.009864    11A     -0.838896    12A     -0.829517
      13A     -0.710330    14A     -0.701385    15A     -0.653546
      16A     -0.638093    17A     -0.580406    18A     -0.570164
      19A     -0.538458    20A     -0.535667    21A     -0.527409
      22A     -0.520686    23A     -0.495525    24A     -0.483704
      25A     -0.448077    26A     -0.432874

  @DF-RHF Final Energy:  -308.28843095604316

   => Energetics <=

    Nuclear Repulsion Energy =            251.5778073788954430
    One-Electron Energy =                -919.0401202794013216
    Two-Electron Energy =                 359.1738819444626643
    Total Energy =                       -308.2884309560431575
 Dipole X            :         -0.6829672           -0.0000019           -0.6829691
 Dipole Y            :         -0.2586861            0.0000189           -0.2586672
 Dipole Z            :          0.7431395            0.0000057            0.7431452
 Magnitude           :                                                    1.0419310
  Basis Set: (AUG-CC-PVTZ AUX)
    Blend: AUG-CC-PVTZ-RI
	 Reference Energy          =    -308.2884309560431575 [Eh]
	 Singles Energy            =      -0.0000000000000000 [Eh]
	 Same-Spin Energy          =      -0.2989979147252310 [Eh]
	 Opposite-Spin Energy      =      -1.0395097446447898 [Eh]
	 Correlation Energy        =      -1.3385076593700207 [Eh]
	 Total Energy              =    -309.6269386154131666 [Eh]

	 ================> DF-SCS-MP2 Energies <==================
	-----------------------------------------------------------
	 SCS Same-Spin Scale       =       0.3333333333333333 [-]
	 SCS Opposite-Spin Scale   =       1.2000000000000000 [-]
	 SCS Same-Spin Energy      =      -0.0996659715750770 [Eh]
	 SCS Opposite-Spin Energy  =      -1.2474116935737478 [Eh]
	 SCS Correlation Energy    =      -1.3470776651488248 [Eh]
	 SCS Total Energy          =    -309.6355086211920025 [Eh]
	-----------------------------------------------------------

*** Psi4 exiting successfully. Buy a developer a beer!
