                               Psi4 1.9.1 release

  ==> Input File <==

--------------------------------------------------------------------------
MEMORY 10 GB

molecule dimer {
0 1
C   -2.098342   0.899143   0.652061
C   -1.958638  -0.010209  -0.535834
O   -1.739915  -1.319827  -0.056070
H   -1.654998  -1.916632  -0.802169
H   -2.263640   1.930311   0.335211
H   -1.194630   0.867047   1.265258
H   -2.938590   0.588537   1.275365
H   -1.119657   0.320567  -1.166779
H   -2.865503   0.033841  -1.155338
--
0 1
C    1.597211   1.183119  -0.539916
C    1.583708   0.016477   0.407794
O    2.681822  -0.811858   0.090228
H    2.659345  -1.585314   0.656432
H    0.768742   1.863482  -0.330371
H    1.510069   0.837539  -1.572433
H    2.531866   1.739975  -0.450588
H    0.636022  -0.535344   0.322448
H    1.652082   0.378288   1.445082

units ang
no_reorient
no_com
symmetry c1
}

set {
basis        aug-cc-pVTZ
scf_type     df
}

energy("mp2", bsse_type="cp")
--------------------------------------------------------------------------

                               Psi4 1.9.1 release
    Molecular point group: c1
  Charge       = 0
  Multiplicity = 1
  Basis Set: AUG-CC-PVTZ
    Blend: AUG-CC-PVTZ
  Basis Set: (AUG-CC-PVTZ AUX)
    Blend: AUG-CC-PVTZ-JKFIT
  @DF-RHF Final Energy:  -154.14557540853605
    Total Energy =                       -154.1455754085360468
 Dipole X            :        -95.5108358           95.0498528           -0.4609829
 Dipole Y            :         -6.5431269            6.4275973           -0.1155296
 Dipole Z            :          0.4575238           -0.0006387            0.4568851
 Magnitude           :                                                    0.6592392
  Basis Set: (AUG-CC-PVTZ AUX)
    Blend: AUG-CC-PVTZ-RI
	 Reference Energy          =    -154.1455754085360468 [Eh]
	 Singles Energy            =      -0.0000000000000000 [Eh]
	 Same-Spin Energy          =      -0.1481459894975498 [Eh]
	 Opposite-Spin Energy      =      -0.5185291601690402 [Eh]
	 Correlation Energy        =      -0.6666751496665899 [Eh]
	 Total Energy              =    -154.8122505582026349 [Eh]
	 SCS Total Energy          =    -154.8171923972380739 [Eh]
                               Psi4 1.9.1 release
    Molecular point group: c1
  Multiplicity = 1
  Basis Set: AUG-CC-PVTZ
    Blend: AUG-CC-PVTZ
  Basis Set: (AUG-CC-PVTZ AUX)
    Blend: AUG-CC-PVTZ-JKFIT
  @DF-RHF Final Energy:  -154.14565361324691
    Total Energy =                       -154.1456536132469068
  Basis Set: (AUG-CC-PVTZ AUX)
	 Singles Energy            =      -0.0000000000000000 [Eh]
	 Same-Spin Energy          =      -0.1481572136258288 [Eh]
	 Opposite-Spin Energy      =      -0.5184965036096030 [Eh]
	 Correlation Energy        =      -0.6666537172354318 [Eh]
	 Total Energy              =    -154.8123073304823265 [Eh]
	 SCS Total Energy          =    -154.8172351554537158 [Eh]
                               Psi4 1.9.1 release
    Molecular point group: c1

    Geometry (in Bohr), charge = 0, multiplicity = 1:

       Center              X                  Y                   Z               Mass
    ------------   -----------------  -----------------  -----------------  -----------------
         C           -3.965291697545     1.699134017623     1.232216707092    12.000000000000
         C           -3.701289398914    -0.019292214015    -1.012579508709    12.000000000000
         O           -3.287962831576    -2.494111562985    -0.105956943854    15.994914619570
         H           -3.127492958180    -3.621909563288    -1.515879716332     1.007825032230
         H           -4.277659646631     3.647759126959     0.633456984241     1.007825032230
         H           -2.257523521256     1.638481367900     2.390991098045     1.007825032230
         H           -5.553130295009     1.112173744699     2.410090559995     1.007825032230
         H           -2.115845084452     0.605783834860    -2.204892758936     1.007825032230
         H           -5.415015881678     0.063950221812    -2.183272402334     1.007825032230
         C            3.018291354569     2.235770883826    -1.020293370753    12.000000000000
         C            2.992774382697     0.031137017369     0.770618975605    12.000000000000
         O            5.067909097228    -1.534189272762     0.170506208848    15.994914619570
         H            5.025433723106    -2.995809282854     1.240476699987     1.007825032230
         H            1.452711841137     3.521470619720    -0.624310709794     1.007825032230
         H            2.853616840544     1.582719329390    -2.971467720632     1.007825032230
         H            4.784533326358     3.288076215143    -0.851487915418     1.007825032230
         H            1.201907389766    -1.011653542907     0.609338409702     1.007825032230
         H            3.121982516799     0.714860716547     2.730809208829     1.007825032230

  Charge       = 0
  Multiplicity = 1
  Basis Set: AUG-CC-PVTZ
    Blend: AUG-CC-PVTZ
  Basis Set: (AUG-CC-PVTZ AUX)
    Blend: AUG-CC-PVTZ-JKFIT

    Orbital Energies [Eh]
    ---------------------

    Doubly Occupied:

       1A    -20.561485     2A    -20.551174     3A    -11.277757
       4A    -11.266060     5A    -11.215758     6A    -11.209273
       7A     -1.368110     8A     -1.357255     9A     -1.020274
      10A     -1.009907    11A     -0.838440    12A     -0.829231
      13A     -0.709027    14A     -0.700100    15A     -0.656697
      16A     -0.634738    17A     -0.579746    18A     -0.570313
      19A     -0.538840    20A     -0.535201    21A     -0.526562
      22A     -0.522447    23A     -0.495129    24A     -0.484101
      25A     -0.446740    26A     -0.432489

  @DF-RHF Final Energy:  -308.28891187877184

   => Energetics <=

    Nuclear Repulsion Energy =            251.7752824716984890
    One-Electron Energy =                -919.4546776665588368
    Two-Electron Energy =                 359.3904833160885346
    Total Energy =                       -308.2889118787718417
 Dipole X            :         -0.5771352           -0.0000038           -0.5771390
 Dipole Y            :          0.0314095           -0.0000057            0.0314038
 Dipole Z            :         -0.1634412            0.0000227           -0.1634185
 Magnitude           :                                                    0.6006506
  Basis Set: (AUG-CC-PVTZ AUX)
    Blend: AUG-CC-PVTZ-RI
	 Reference Energy          =    -308.2889118787718417 [Eh]
	 Singles Energy            =      -0.0000000000000000 [Eh]
	 Same-Spin Energy          =      -0.2990045026293315 [Eh]
	 Opposite-Spin Energy      =      -1.0396773351382254 [Eh]
	 Correlation Energy        =      -1.3386818377675569 [Eh]
	 Total Energy              =    -309.6275937165394225 [Eh]

	 ================> DF-SCS-MP2 Energies <==================
	-----------------------------------------------------------
	 SCS Same-Spin Scale       =       0.3333333333333333 [-]
	 SCS Opposite-Spin Scale   =       1.2000000000000000 [-]
	 SCS Same-Spin Energy      =      -0.0996681675431105 [Eh]
	 SCS Opposite-Spin Energy  =      -1.2476128021658703 [Eh]
	 SCS Correlation Energy    =      -1.3472809697089809 [Eh]
	 SCS Total Energy          =    -309.6361928484808459 [Eh]
	-----------------------------------------------------------

*** Psi4 exiting successfully. Buy a developer a beer!
