                               Psi4 1.9.1 release

  ==> Input File <==

--------------------------------------------------------------------------
MEMORY 10 GB

molecule dimer {
0 1
C   -1.812049  -1.313670  -0.315971
C   -1.974663  -0.127387   0.591559
O   -2.245825   0.998052  -0.214631
H   -2.351964   1.768926   0.346257
H   -1.584770  -2.214270   0.257177
H   -0.998441  -1.140479  -1.024415
H   -2.724973  -1.486699  -0.888315
H   -1.056825   0.024328   1.180454
H   -2.790662  -0.304727   1.306389
--
0 1
C    1.280549   1.136886  -0.192903
C    1.743025  -0.292312  -0.215131
O    3.051475  -0.339538   0.307722
H    3.364688  -1.245527   0.287422
H    0.264456   1.225750  -0.585081
H    1.944384   1.760507  -0.794390
H    1.294339   1.521489   0.829710
H    1.714899  -0.680289  -1.244464
H    1.058495  -0.918225   0.379202

units ang
no_reorient
no_com
symmetry c1
}

set {
basis        aug-cc-pVTZ
scf_type     df
}

energy("mp2", bsse_type="cp")
--------------------------------------------------------------------------

                               Psi4 1.9.1 release
    Molecular point group: c1
  Charge       = 0
  Multiplicity = 1
  Basis Set: AUG-CC-PVTZ
    Blend: AUG-CC-PVTZ
  Basis Set: (AUG-CC-PVTZ AUX)
    Blend: AUG-CC-PVTZ-JKFIT
  @DF-RHF Final Energy:  -154.14557695554473
    Total Energy =                       -154.1455769555447262
 Dipole X            :        -98.9800850           98.6333197           -0.3467653
 Dipole Y            :         -8.0958643            7.5869575           -0.5089068
 Dipole Z            :          1.8804238           -2.1052097           -0.2247860
 Magnitude           :                                                    0.6555616
  Basis Set: (AUG-CC-PVTZ AUX)
    Blend: AUG-CC-PVTZ-RI
	 Reference Energy          =    -154.1455769555447262 [Eh]
	 Singles Energy            =      -0.0000000000000000 [Eh]
	 Same-Spin Energy          =      -0.1481297979631330 [Eh]
	 Opposite-Spin Energy      =      -0.5183306897540653 [Eh]
	 Correlation Energy        =      -0.6664604877171982 [Eh]
	 Total Energy              =    -154.8120374432619144 [Eh]
	 SCS Total Energy          =    -154.8169503825706386 [Eh]
                               Psi4 1.9.1 release
    Molecular point group: c1
  Multiplicity = 1
  Basis Set: AUG-CC-PVTZ
    Blend: AUG-CC-PVTZ
  Basis Set: (AUG-CC-PVTZ AUX)
    Blend: AUG-CC-PVTZ-JKFIT
  @DF-RHF Final Energy:  -154.14564026460044
    Total Energy =                       -154.1456402646004449
  Basis Set: (AUG-CC-PVTZ AUX)
	 Singles Energy            =      -0.0000000000000000 [Eh]
	 Same-Spin Energy          =      -0.1481574391969848 [Eh]
	 Opposite-Spin Energy      =      -0.5184866841040182 [Eh]
	 Correlation Energy        =      -0.6666441233010030 [Eh]
	 Total Energy              =    -154.8122843879014567 [Eh]
	 SCS Total Energy          =    -154.8172100985909196 [Eh]
                               Psi4 1.9.1 release
    Molecular point group: c1

    Geometry (in Bohr), charge = 0, multiplicity = 1:

       Center              X                  Y                   Z               Mass
    ------------   -----------------  -----------------  -----------------  -----------------
         C           -3.424276335910    -2.482476519230    -0.597098653587    12.000000000000
         C           -3.731572260075    -0.240726541944     1.117884497050    12.000000000000
         O           -4.243994175706     1.886044938965    -0.405593808033    15.994914619570
         H           -4.444567816936     3.342785676202     0.654330899023     1.007825032230
         H           -2.994781271842    -4.184363867818     0.485994095767     1.007825032230
         H           -1.886780042428    -2.155192961836    -1.935863788811     1.007825032230
         H           -5.149452669267    -2.809453940992    -1.678672063136     1.007825032230
         H           -1.997109812537     0.045973257180     2.230734763701     1.007825032230
         H           -5.273586888722    -0.575850573032     2.468717423311     1.007825032230
         C            2.419886900229     2.148403175867    -0.364533838779    12.000000000000
         C            3.293839879826    -0.552389623185    -0.406538671096    12.000000000000
         O            5.766452028681    -0.641633829186     0.581510302778    15.994914619570
         H            6.358338817614    -2.353704911863     0.543148862431     1.007825032230
         H            0.499749412234     2.316331798280    -1.105642851209     1.007825032230
         H            3.674353242722     3.326876071951    -1.501179536802     1.007825032230
         H            2.445946223499     2.875197512897     1.567924663554     1.007825032230
         H            3.240689442822    -1.285559896162    -2.351696132992     1.007825032230
         H            2.000265655166    -1.735193771549     0.716587926226     1.007825032230

  Charge       = 0
  Multiplicity = 1
  Basis Set: AUG-CC-PVTZ
    Blend: AUG-CC-PVTZ
  Basis Set: (AUG-CC-PVTZ AUX)
    Blend: AUG-CC-PVTZ-JKFIT

    Orbital Energies [Eh]
    ---------------------

    Doubly Occupied:

       1A    -20.560229     2A    -20.554246     3A    -11.277374
       4A    -11.271240     5A    -11.215598     6A    -11.204598
       7A     -1.367205     8A     -1.360838     9A     -1.019997
      10A     -1.009766    11A     -0.838278    12A     -0.829524
      13A     -0.708590    14A     -0.703132    15A     -0.654877
      16A     -0.639197    17A     -0.578977    18A     -0.571837
      19A     -0.539514    20A     -0.534311    21A     -0.523796
      22A     -0.519407    23A     -0.493498    24A     -0.485157
      25A     -0.445501    26A     -0.436714

  @DF-RHF Final Energy:  -308.28827008887509

   => Energetics <=

    Nuclear Repulsion Energy =            250.5042968656412086
    One-Electron Energy =                -916.8983293105437724
    Two-Electron Energy =                 358.1057623560274692
    Total Energy =                       -308.2882700888750946
 Dipole X            :         -0.3794283           -0.0000038           -0.3794321
 Dipole Y            :         -0.4983912           -0.0000038           -0.4983950
 Dipole Z            :          0.4024025           -0.0000038            0.4023987
 Magnitude           :                                                    0.7445072
  Basis Set: (AUG-CC-PVTZ AUX)
    Blend: AUG-CC-PVTZ-RI
	 Reference Energy          =    -308.2882700888750946 [Eh]
	 Singles Energy            =      -0.0000000000000000 [Eh]
	 Same-Spin Energy          =      -0.2991481299518107 [Eh]
	 Opposite-Spin Energy      =      -1.0396480816834901 [Eh]
	 Correlation Energy        =      -1.3387962116353007 [Eh]
	 Total Energy              =    -309.6270663005104211 [Eh]

	 ================> DF-SCS-MP2 Energies <==================
	-----------------------------------------------------------
	 SCS Same-Spin Scale       =       0.3333333333333333 [-]
	 SCS Opposite-Spin Scale   =       1.2000000000000000 [-]
	 SCS Same-Spin Energy      =      -0.0997160433172702 [Eh]
	 SCS Opposite-Spin Energy  =      -1.2475776980201880 [Eh]
	 SCS Correlation Energy    =      -1.3472937413374582 [Eh]
	 SCS Total Energy          =    -309.6355638302125612 [Eh]
	-----------------------------------------------------------

*** Psi4 exiting successfully. Buy a developer a beer!
