                               Psi4 1.9.1 release

  ==> Input File <==

--------------------------------------------------------------------------
MEMORY 10 GB

molecule dimer {
0 1
C   -1.625807   1.059484   0.634878
C   -2.134810   0.062561  -0.367521
O   -1.503556  -1.178408  -0.117601
H   -1.853884  -1.833659  -0.723908
H   -2.131355   2.018747   0.511181
H   -0.552167   1.223174   0.512937
H   -1.811479   0.701238   1.649803
H   -1.916676   0.411376  -1.387910
H   -3.226488  -0.037051  -0.285713
--
0 1
C    1.829110  -0.956948   0.707802
C    1.684364  -0.165801  -0.565959
O    1.716030   1.229112  -0.342372
H    2.511858   1.436374   0.154053
H    1.762317  -2.028976   0.511733
H    1.036444  -0.694057   1.410849
H    2.795718  -0.763017   1.184059
H    0.712375  -0.376648  -1.020251
H    2.456407  -0.458908  -1.292244

units ang
no_reorient
no_com
symmetry c1
}

set {
basis        aug-cc-pVTZ
scf_type     df
}

energy("mp2", bsse_type="cp")
--------------------------------------------------------------------------

                               Psi4 1.9.1 release
    Molecular point group: c1
  Charge       = 0
  Multiplicity = 1
  Basis Set: AUG-CC-PVTZ
    Blend: AUG-CC-PVTZ
  Basis Set: (AUG-CC-PVTZ AUX)
    Blend: AUG-CC-PVTZ-JKFIT
  @DF-RHF Final Energy:  -154.14501115056643
    Total Energy =                       -154.1450111505664324
 Dipole X            :        -86.6392243           87.0865224            0.4472981
 Dipole Y            :         -0.9092156            0.3990535           -0.5101621
 Dipole Z            :          2.0146627           -1.7758115            0.2388511
 Magnitude           :                                                    0.7192988
  Basis Set: (AUG-CC-PVTZ AUX)
    Blend: AUG-CC-PVTZ-RI
	 Reference Energy          =    -154.1450111505664324 [Eh]
	 Singles Energy            =      -0.0000000000000000 [Eh]
	 Same-Spin Energy          =      -0.1482527494625406 [Eh]
	 Opposite-Spin Energy      =      -0.5185844539626050 [Eh]
	 Correlation Energy        =      -0.6668372034251455 [Eh]
	 Total Energy              =    -154.8118483539915644 [Eh]
	 SCS Total Energy          =    -154.8167300784757288 [Eh]
                               Psi4 1.9.1 release
    Molecular point group: c1
  Multiplicity = 1
  Basis Set: AUG-CC-PVTZ
    Blend: AUG-CC-PVTZ
  Basis Set: (AUG-CC-PVTZ AUX)
    Blend: AUG-CC-PVTZ-JKFIT
  @DF-RHF Final Energy:  -154.14559048143678
    Total Energy =                       -154.1455904814367841
  Basis Set: (AUG-CC-PVTZ AUX)
	 Singles Energy            =      -0.0000000000000000 [Eh]
	 Same-Spin Energy          =      -0.1481435094093601 [Eh]
	 Opposite-Spin Energy      =      -0.5186200259726582 [Eh]
	 Correlation Energy        =      -0.6667635353820184 [Eh]
	 Total Energy              =    -154.8123540168188015 [Eh]
	 SCS Total Energy          =    -154.8173156824070986 [Eh]
                               Psi4 1.9.1 release
    Molecular point group: c1

    Geometry (in Bohr), charge = 0, multiplicity = 1:

       Center              X                  Y                   Z               Mass
    ------------   -----------------  -----------------  -----------------  -----------------
         C           -3.072329962852     2.002134594305     1.199745543078    12.000000000000
         C           -4.034206229889     0.118223156135    -0.694514035354    12.000000000000
         O           -2.841309054289    -2.226868384049    -0.222233682080    15.994914619570
         H           -3.503333028368    -3.465113317481    -1.367987860028     1.007825032230
         H           -4.027677226125     3.814878946590     0.965992090538     1.007825032230
         H           -1.043444405516     2.311463863781     0.969310449614     1.007825032230
         H           -3.423199192018     1.325147768764     3.117675830959     1.007825032230
         H           -3.621992711238     0.777387974586    -2.622769786784     1.007825032230
         H           -6.097178667076    -0.070016242674    -0.539919320483     1.007825032230
         C            3.456516953336    -1.808369636305     1.337551931051    12.000000000000
         C            3.182986655581    -0.313318481327    -1.069507508238    12.000000000000
         O            3.242826723069     2.322685057514    -0.646989313025    15.994914619570
         H            4.746723686040     2.714353473728     0.291117978805     1.007825032230
         H            3.330296476238    -3.834208955127     0.967035219359     1.007825032230
         H            1.958595304374    -1.311577645457     2.666118214376     1.007825032230
         H            5.283141344013    -1.441893159068     2.237547226383     1.007825032230
         H            1.346193648623    -0.711761565701    -1.927994969224     1.007825032230
         H            4.641936482657    -0.867210436782    -2.441987247266     1.007825032230

  Charge       = 0
  Multiplicity = 1
  Basis Set: AUG-CC-PVTZ
    Blend: AUG-CC-PVTZ
  Basis Set: (AUG-CC-PVTZ AUX)
    Blend: AUG-CC-PVTZ-JKFIT

    Orbital Energies [Eh]
    ---------------------

    Doubly Occupied:

       1A    -20.555278     2A    -20.549860     3A    -11.270117
       4A    -11.262174     5A    -11.206749     6A    -11.200348
       7A     -1.361271     8A     -1.355988     9A     -1.008142
      10A     -1.004113    11A     -0.838868    12A     -0.827802
      13A     -0.701707    14A     -0.679639    15A     -0.643904
      16A     -0.614945    17A     -0.605774    18A     -0.571710
      19A     -0.535371    20A     -0.525652    21A     -0.518174
      22A     -0.514095    23A     -0.484530    24A     -0.471879
      25A     -0.437750    26A     -0.434831

  @DF-RHF Final Energy:  -308.28868702855476

   => Energetics <=

    Nuclear Repulsion Energy =            257.5510338561722392
    One-Electron Energy =                -931.3180973195744627
    Two-Electron Energy =                 365.4783764348474620
    Total Energy =                       -308.2886870285547616
 Dipole X            :         -0.0404899            0.0000076           -0.0404823
 Dipole Y            :         -0.3740437            0.0000019           -0.3740419
 Dipole Z            :         -0.2149943            0.0000094           -0.2149849
 Magnitude           :                                                    0.4333182
  Basis Set: (AUG-CC-PVTZ AUX)
    Blend: AUG-CC-PVTZ-RI
	 Reference Energy          =    -308.2886870285547616 [Eh]
	 Singles Energy            =      -0.0000000000000000 [Eh]
	 Same-Spin Energy          =      -0.2994133103777993 [Eh]
	 Opposite-Spin Energy      =      -1.0400450632453664 [Eh]
	 Correlation Energy        =      -1.3394583736231658 [Eh]
	 Total Energy              =    -309.6281454021779496 [Eh]

	 ================> DF-SCS-MP2 Energies <==================
	-----------------------------------------------------------
	 SCS Same-Spin Scale       =       0.3333333333333333 [-]
	 SCS Opposite-Spin Scale   =       1.2000000000000000 [-]
	 SCS Same-Spin Energy      =      -0.0998044367925998 [Eh]
	 SCS Opposite-Spin Energy  =      -1.2480540758944396 [Eh]
	 SCS Correlation Energy    =      -1.3478585126870395 [Eh]
	 SCS Total Energy          =    -309.6365455412417873 [Eh]
	-----------------------------------------------------------

*** Psi4 exiting successfully. Buy a developer a beer!
