                               Psi4 1.9.1 release

  ==> Input File <==

--------------------------------------------------------------------------
MEMORY 10 GB

molecule dimer {
0 1
C   -1.686448   1.341898  -0.042337
C   -2.262488  -0.026468   0.247001
O   -1.639995  -1.048471  -0.482759
H   -0.760677  -1.193099  -0.101764
H   -2.245446   2.125623   0.474367
H   -1.715547   1.545841  -1.114785
H   -0.642230   1.412227   0.280111
H   -3.321544  -0.043902  -0.027915
H   -2.221993  -0.228649   1.328899
--
0 1
C    2.768163   0.652642  -0.020344
C    1.678194  -0.288476  -0.455531
O    1.000671  -0.866301   0.650390
H    0.848629  -0.177617   1.305383
H    3.302083   1.058364  -0.881158
H    3.487696   0.143710   0.623894
H    2.350056   1.498938   0.534905
H    2.087244  -1.126565  -1.024317
H    0.961797   0.225730  -1.111399

units ang
no_reorient
no_com
symmetry c1
}

set {
basis        aug-cc-pVTZ
scf_type     df
}

energy("mp2", bsse_type="cp")
--------------------------------------------------------------------------

                               Psi4 1.9.1 release
    Molecular point group: c1
  Charge       = 0
  Multiplicity = 1
  Basis Set: AUG-CC-PVTZ
    Blend: AUG-CC-PVTZ
  Basis Set: (AUG-CC-PVTZ AUX)
    Blend: AUG-CC-PVTZ-JKFIT
  @DF-RHF Final Energy:  -154.14454187717519
    Total Energy =                       -154.1445418771751861
 Dipole X            :        -89.9157011           90.1796488            0.2639477
 Dipole Y            :          6.5896423           -5.9013350            0.6883073
 Dipole Z            :         -3.4820391            3.3923948           -0.0896444
 Magnitude           :                                                    0.7426112
  Basis Set: (AUG-CC-PVTZ AUX)
    Blend: AUG-CC-PVTZ-RI
	 Reference Energy          =    -154.1445418771751861 [Eh]
	 Singles Energy            =      -0.0000000000000000 [Eh]
	 Same-Spin Energy          =      -0.1483802166501133 [Eh]
	 Opposite-Spin Energy      =      -0.5191801099254366 [Eh]
	 Correlation Energy        =      -0.6675603265755499 [Eh]
	 Total Energy              =    -154.8121022037507259 [Eh]
	 SCS Total Energy          =    -154.8170180813024217 [Eh]
                               Psi4 1.9.1 release
    Molecular point group: c1
  Multiplicity = 1
  Basis Set: AUG-CC-PVTZ
    Blend: AUG-CC-PVTZ
  Basis Set: (AUG-CC-PVTZ AUX)
    Blend: AUG-CC-PVTZ-JKFIT
  @DF-RHF Final Energy:  -154.14449942766890
    Total Energy =                       -154.1444994276689044
  Basis Set: (AUG-CC-PVTZ AUX)
	 Singles Energy            =      -0.0000000000000000 [Eh]
	 Same-Spin Energy          =      -0.1482493283472048 [Eh]
	 Opposite-Spin Energy      =      -0.5187288106711436 [Eh]
	 Correlation Energy        =      -0.6669781390183485 [Eh]
	 Total Energy              =    -154.8114775666872447 [Eh]
	 SCS Total Energy          =    -154.8163904432566653 [Eh]
                               Psi4 1.9.1 release
    Molecular point group: c1

    Geometry (in Bohr), charge = 0, multiplicity = 1:

       Center              X                  Y                   Z               Mass
    ------------   -----------------  -----------------  -----------------  -----------------
         C           -3.186924844826     2.535819708300    -0.080005334974    12.000000000000
         C           -4.275482682135    -0.050017271089     0.466764242714    12.000000000000
         O           -3.099141397120    -1.981323040485    -0.912282294600    15.994914619570
         H           -1.437471199935    -2.254630350558    -0.192306089431     1.007825032230
         H           -4.243277969505     4.016845315974     0.896423712955     1.007825032230
         H           -3.241913985351     2.921216123504    -2.106638338769     1.007825032230
         H           -1.213638809553     2.668722256977     0.529333074728     1.007825032230
         H           -6.276808473658    -0.082962756360    -0.052751704792     1.007825032230
         H           -4.198958222684    -0.432083988860     2.511255158395     1.007825032230
         C            5.231069940626     1.233314637971    -0.038444588296    12.000000000000
         C            3.171327045387    -0.545140633768    -0.860828831656    12.000000000000
         O            1.890994131688    -1.637071632210     1.229058974737    15.994914619570
         H            1.603676392121    -0.335647485225     2.466816358829     1.007825032230
         H            6.240032513530     2.000018101044    -1.665147293256     1.007825032230
         H            6.590790248855     0.271572541490     1.178988791316     1.007825032230
         H            4.440962219489     2.832582299042     1.010823953138     1.007825032230
         H            3.944319517005    -2.128899312526    -1.935678595651     1.007825032230
         H            1.817532918287     0.426567878300    -2.100239726108     1.007825032230

  Charge       = 0
  Multiplicity = 1
  Basis Set: AUG-CC-PVTZ
    Blend: AUG-CC-PVTZ
  Basis Set: (AUG-CC-PVTZ AUX)
    Blend: AUG-CC-PVTZ-JKFIT

    Orbital Energies [Eh]
    ---------------------

    Doubly Occupied:

       1A    -20.577136     2A    -20.532092     3A    -11.285087
       4A    -11.264295     5A    -11.230279     6A    -11.214138
       7A     -1.383359     8A     -1.343134     9A     -1.028119
      10A     -1.006338    11A     -0.864420    12A     -0.837000
      13A     -0.697945    14A     -0.687222    15A     -0.640082
      16A     -0.636557    17A     -0.616032    18A     -0.591091
      19A     -0.554182    20A     -0.541829    21A     -0.538085
      22A     -0.519270    23A     -0.501191    24A     -0.470405
      25A     -0.454696    26A     -0.427349

  @DF-RHF Final Energy:  -308.29098133189109

   => Energetics <=

    Nuclear Repulsion Energy =            258.3012026751724761
    One-Electron Energy =                -932.3016986117324905
    Two-Electron Energy =                 365.7095146046689251
    Total Energy =                       -308.2909813318910892
 Dipole X            :          0.7533968            0.0000038            0.7534006
 Dipole Y            :          1.0085860            0.0000019            1.0085879
 Dipole Z            :          0.4107433            0.0000057            0.4107490
 Magnitude           :                                                    1.3242268
  Basis Set: (AUG-CC-PVTZ AUX)
    Blend: AUG-CC-PVTZ-RI
	 Reference Energy          =    -308.2909813318910892 [Eh]
	 Singles Energy            =      -0.0000000000000000 [Eh]
	 Same-Spin Energy          =      -0.3001821076255625 [Eh]
	 Opposite-Spin Energy      =      -1.0407906878416138 [Eh]
	 Correlation Energy        =      -1.3409727954671764 [Eh]
	 Total Energy              =    -309.6319541273582558 [Eh]

	 ================> DF-SCS-MP2 Energies <==================
	-----------------------------------------------------------
	 SCS Same-Spin Scale       =       0.3333333333333333 [-]
	 SCS Opposite-Spin Scale   =       1.2000000000000000 [-]
	 SCS Same-Spin Energy      =      -0.1000607025418542 [Eh]
	 SCS Opposite-Spin Energy  =      -1.2489488254099366 [Eh]
	 SCS Correlation Energy    =      -1.3490095279517909 [Eh]
	 SCS Total Energy          =    -309.6399908598428965 [Eh]
	-----------------------------------------------------------

*** Psi4 exiting successfully. Buy a developer a beer!
