                               Psi4 1.9.1 release

  ==> Input File <==

--------------------------------------------------------------------------
MEMORY 10 GB

molecule dimer {
0 1
C   -1.293433   0.977734   0.582155
C   -1.697697  -0.119261  -0.369663
O   -3.004856  -0.591736  -0.138850
H   -3.604335   0.157887  -0.173882
H   -0.261743   1.295688   0.406944
H   -1.383760   0.637179   1.616441
H   -1.937873   1.853832   0.459971
H   -1.042307  -0.988013  -0.249493
H   -1.579452   0.220487  -1.409929
--
0 1
C    1.810897  -1.169369   0.598404
C    1.982063  -0.248703  -0.583258
O    2.118234   1.102081  -0.201091
H    2.852989   1.171537   0.413824
H    1.654232  -2.200924   0.275950
H    0.953609  -0.862743   1.202615
H    2.697885  -1.153732   1.238767
H    1.098806  -0.286698  -1.228218
H    2.833951  -0.569664  -1.199291

units ang
no_reorient
no_com
symmetry c1
}

set {
basis        aug-cc-pVTZ
scf_type     df
}

energy("mp2", bsse_type="cp")
--------------------------------------------------------------------------

                               Psi4 1.9.1 release
    Molecular point group: c1
  Charge       = 0
  Multiplicity = 1
  Basis Set: AUG-CC-PVTZ
    Blend: AUG-CC-PVTZ
  Basis Set: (AUG-CC-PVTZ AUX)
    Blend: AUG-CC-PVTZ-JKFIT
  @DF-RHF Final Energy:  -154.14512088135072
    Total Energy =                       -154.1451208813507208
 Dipole X            :        -97.5179271           97.8785612            0.3606341
 Dipole Y            :          6.2233067           -6.7916908           -0.5683841
 Dipole Z            :          1.7729950           -1.5386245            0.2343705
 Magnitude           :                                                    0.7127741
  Basis Set: (AUG-CC-PVTZ AUX)
    Blend: AUG-CC-PVTZ-RI
	 Reference Energy          =    -154.1451208813507208 [Eh]
	 Singles Energy            =      -0.0000000000000000 [Eh]
	 Same-Spin Energy          =      -0.1482340043051025 [Eh]
	 Opposite-Spin Energy      =      -0.5185898292035759 [Eh]
	 Correlation Energy        =      -0.6668238335086784 [Eh]
	 Total Energy              =    -154.8119447148594077 [Eh]
	 SCS Total Energy          =    -154.8168400111633787 [Eh]
                               Psi4 1.9.1 release
    Molecular point group: c1
  Multiplicity = 1
  Basis Set: AUG-CC-PVTZ
    Blend: AUG-CC-PVTZ
  Basis Set: (AUG-CC-PVTZ AUX)
    Blend: AUG-CC-PVTZ-JKFIT
  @DF-RHF Final Energy:  -154.14500757124711
    Total Energy =                       -154.1450075712471062
  Basis Set: (AUG-CC-PVTZ AUX)
	 Singles Energy            =      -0.0000000000000000 [Eh]
	 Same-Spin Energy          =      -0.1482363566551592 [Eh]
	 Opposite-Spin Energy      =      -0.5186324950558765 [Eh]
	 Correlation Energy        =      -0.6668688517110357 [Eh]
	 Total Energy              =    -154.8118764229581359 [Eh]
	 SCS Total Energy          =    -154.8167786841992211 [Eh]
                               Psi4 1.9.1 release
    Molecular point group: c1

    Geometry (in Bohr), charge = 0, multiplicity = 1:

       Center              X                  Y                   Z               Mass
    ------------   -----------------  -----------------  -----------------  -----------------
         C           -2.444234131629     1.847649483548     1.100113512566    12.000000000000
         C           -3.208182374011    -0.225370627448    -0.698561828715    12.000000000000
         O           -5.678354886439    -1.118218978574    -0.262388472520    15.994914619570
         H           -6.811206014402     0.298363188770    -0.328589358147     1.007825032230
         H           -0.494622585256     2.448495464042     0.769012708398     1.007825032230
         H           -2.614927423364     1.204093802893     3.054630787961     1.007825032230
         H           -3.662049235919     3.503234762610     0.869219215653     1.007825032230
         H           -1.969674768648    -1.867073978392    -0.471473440219     1.007825032230
         H           -2.984731708307     0.416660044224    -2.664379666341     1.007825032230
         C            3.422099371413    -2.209787149600     1.130819672378    12.000000000000
         C            3.745556233403    -0.469980556580    -1.102197880482    12.000000000000
         O            4.002882129633     2.082631258071    -0.380006916294    15.994914619570
         H            5.391367848944     2.213884075840     0.782014024141     1.007825032230
         H            3.126045427968    -4.159143582947     0.521469924320     1.007825032230
         H            1.802059840772    -1.630347986656     2.272612984367     1.007825032230
         H            5.098263767981    -2.180237502177     2.340930363255     1.007825032230
         H            2.076442405010    -0.541780700717    -2.320995642358     1.007825032230
         H            5.355391242967    -1.076508943533    -2.266331534726     1.007825032230

  Charge       = 0
  Multiplicity = 1
  Basis Set: AUG-CC-PVTZ
    Blend: AUG-CC-PVTZ
  Basis Set: (AUG-CC-PVTZ AUX)
    Blend: AUG-CC-PVTZ-JKFIT

    Orbital Energies [Eh]
    ---------------------

    Doubly Occupied:

       1A    -20.561635     2A    -20.551570     3A    -11.278259
       4A    -11.268613     5A    -11.221843     6A    -11.207498
       7A     -1.368910     8A     -1.358579     9A     -1.020024
      10A     -1.006645    11A     -0.853995    12A     -0.842415
      13A     -0.694373    14A     -0.681959    15A     -0.635224
      16A     -0.624167    17A     -0.609979    18A     -0.607727
      19A     -0.550424    20A     -0.535238    21A     -0.531992
      22A     -0.516357    23A     -0.486183    24A     -0.475656
      25A     -0.448252    26A     -0.437302

  @DF-RHF Final Energy:  -308.28765365089902

   => Energetics <=

    Nuclear Repulsion Energy =            250.8739938229844881
    One-Electron Energy =                -917.5736531122780661
    Two-Electron Energy =                 358.4120056383945325
    Total Energy =                       -308.2876536508990171
 Dipole X            :          0.6866950            0.0000113            0.6867064
 Dipole Y            :          0.1397359            0.0000038            0.1397397
 Dipole Z            :          0.1471359           -0.0000019            0.1471340
 Magnitude           :                                                    0.7160595
  Basis Set: (AUG-CC-PVTZ AUX)
    Blend: AUG-CC-PVTZ-RI
	 Reference Energy          =    -308.2876536508990171 [Eh]
	 Singles Energy            =      -0.0000000000000000 [Eh]
	 Same-Spin Energy          =      -0.2993562756866328 [Eh]
	 Opposite-Spin Energy      =      -1.0399996715615978 [Eh]
	 Correlation Energy        =      -1.3393559472482306 [Eh]
	 Total Energy              =    -309.6270095981472537 [Eh]

	 ================> DF-SCS-MP2 Energies <==================
	-----------------------------------------------------------
	 SCS Same-Spin Scale       =       0.3333333333333333 [-]
	 SCS Opposite-Spin Scale   =       1.2000000000000000 [-]
	 SCS Same-Spin Energy      =      -0.0997854252288776 [Eh]
	 SCS Opposite-Spin Energy  =      -1.2479996058739173 [Eh]
	 SCS Correlation Energy    =      -1.3477850311027950 [Eh]
	 SCS Total Energy          =    -309.6354386820017908 [Eh]
	-----------------------------------------------------------

*** Psi4 exiting successfully. Buy a developer a beer!
