                               Psi4 1.9.1 release

  ==> Input File <==

--------------------------------------------------------------------------
MEMORY 10 GB

molecule dimer {
0 1
C    1.635449   1.247536   0.209283
C    2.047727  -0.189239   0.362071
O    1.548480  -0.910909  -0.745314
H    1.802687  -1.831576  -0.659123
H    2.034333   1.850858   1.026500
H    0.546224   1.342934   0.213817
H    2.015073   1.650247  -0.732076
H    1.650247  -0.596450   1.304150
H    3.143129  -0.268001   0.414013
--
0 1
C   -1.590107  -1.070649   0.696464
C   -1.772602  -0.178365  -0.497818
O   -1.915449   1.148740  -0.028055
H   -1.998728   1.736540  -0.781331
H   -1.468912  -2.109922   0.386117
H   -2.449662  -1.003946   1.366223
H   -0.699281  -0.774381   1.255697
H   -2.661473  -0.484993  -1.067855
H   -0.900685  -0.269654  -1.159183

units ang
no_reorient
no_com
symmetry c1
}

set {
basis        aug-cc-pVTZ
scf_type     df
}

energy("mp2", bsse_type="cp")
--------------------------------------------------------------------------

                               Psi4 1.9.1 release
    Molecular point group: c1
  Charge       = 0
  Multiplicity = 1
  Basis Set: AUG-CC-PVTZ
    Blend: AUG-CC-PVTZ
  Basis Set: (AUG-CC-PVTZ AUX)
    Blend: AUG-CC-PVTZ-JKFIT
  @DF-RHF Final Energy:  -154.14558691677513
    Total Energy =                       -154.1455869167751302
 Dipole X            :         86.3340596          -86.3200192            0.0140404
 Dipole Y            :          2.0860704           -2.2875513           -0.2014809
 Dipole Z            :         -2.4587954            1.8275617           -0.6312337
 Magnitude           :                                                    0.6627576
  Basis Set: (AUG-CC-PVTZ AUX)
    Blend: AUG-CC-PVTZ-RI
	 Reference Energy          =    -154.1455869167751302 [Eh]
	 Singles Energy            =      -0.0000000000000000 [Eh]
	 Same-Spin Energy          =      -0.1481779055008036 [Eh]
	 Opposite-Spin Energy      =      -0.5185828556230387 [Eh]
	 Correlation Energy        =      -0.6667607611238423 [Eh]
	 Total Energy              =    -154.8123476778989698 [Eh]
	 SCS Total Energy          =    -154.8172789786896999 [Eh]
                               Psi4 1.9.1 release
    Molecular point group: c1
  Multiplicity = 1
  Basis Set: AUG-CC-PVTZ
    Blend: AUG-CC-PVTZ
  Basis Set: (AUG-CC-PVTZ AUX)
    Blend: AUG-CC-PVTZ-JKFIT
  @DF-RHF Final Energy:  -154.14563463022716
    Total Energy =                       -154.1456346302271641
  Basis Set: (AUG-CC-PVTZ AUX)
	 Singles Energy            =      -0.0000000000000000 [Eh]
	 Same-Spin Energy          =      -0.1481417281212955 [Eh]
	 Opposite-Spin Energy      =      -0.5185905189893173 [Eh]
	 Correlation Energy        =      -0.6667322471106127 [Eh]
	 Total Energy              =    -154.8123668773377801 [Eh]
	 SCS Total Energy          =    -154.8173238290547715 [Eh]
                               Psi4 1.9.1 release
    Molecular point group: c1

    Geometry (in Bohr), charge = 0, multiplicity = 1:

       Center              X                  Y                   Z               Mass
    ------------   -----------------  -----------------  -----------------  -----------------
         C            3.090550702154     2.357501371649     0.395487552714    12.000000000000
         C            3.869643209705    -0.357609882256     0.684215027971    12.000000000000
         O            2.926203110749    -1.721368535215    -1.408439337469    15.994914619570
         H            3.406584719923    -3.461177017962    -1.245561952990     1.007825032230
         H            3.844332217981     3.497614717113     1.939803867782     1.007825032230
         H            1.032213763152     2.537777464566     0.404055570967     1.007825032230
         H            3.807936092805     3.118514869358    -1.383423143021     1.007825032230
         H            3.118514869358    -1.127127147529     2.464486326516     1.007825032230
         H            5.939652986984    -0.506448491349     0.782371182379     1.007825032230
         C           -3.004866740173    -2.023233386495     1.316126216241    12.000000000000
         C           -3.349732309439    -0.337061000367    -0.940739680323    12.000000000000
         O           -3.619674017282     2.170803989358    -0.053016266450    15.994914619570
         H           -3.777048519284     3.281585005903    -1.476501603330     1.007825032230
         H           -2.775841382399    -3.987174726078     0.729655382383     1.007825032230
         H           -4.629190279941    -1.897182984749     2.581787296301     1.007825032230
         H           -1.321449574736    -1.463368006758     2.372923426559     1.007825032230
         H           -5.029455060301    -0.916503942764    -2.017953491701     1.007825032230
         H           -1.702047975308    -0.509572208634    -2.190538399287     1.007825032230

  Charge       = 0
  Multiplicity = 1
  Basis Set: AUG-CC-PVTZ
    Blend: AUG-CC-PVTZ
  Basis Set: (AUG-CC-PVTZ AUX)
    Blend: AUG-CC-PVTZ-JKFIT

    Orbital Energies [Eh]
    ---------------------

    Doubly Occupied:

       1A    -20.557097     2A    -20.549690     3A    -11.272532
       4A    -11.262039     5A    -11.204855     6A    -11.204335
       7A     -1.363439     8A     -1.355230     9A     -1.011409
      10A     -1.006751    11A     -0.831211    12A     -0.824864
      13A     -0.704117    14A     -0.695464    15A     -0.654394
      16A     -0.629542    17A     -0.574353    18A     -0.567584
      19A     -0.530395    20A     -0.528210    21A     -0.525133
      22A     -0.513011    23A     -0.489764    24A     -0.478783
      25A     -0.440746    26A     -0.431334

  @DF-RHF Final Energy:  -308.28892412804100

   => Energetics <=

    Nuclear Repulsion Energy =            258.0139300711302326
    One-Electron Energy =                -932.1931455056885625
    Two-Electron Energy =                 365.8902913065172697
    Total Energy =                       -308.2889241280410033
 Dipole X            :          0.3807543            0.0000038            0.3807580
 Dipole Y            :         -0.4312996            0.0000038           -0.4312958
 Dipole Z            :         -0.1650270           -0.0000057           -0.1650327
 Magnitude           :                                                    0.5985219
  Basis Set: (AUG-CC-PVTZ AUX)
    Blend: AUG-CC-PVTZ-RI
	 Reference Energy          =    -308.2889241280410033 [Eh]
	 Singles Energy            =      -0.0000000000000000 [Eh]
	 Same-Spin Energy          =      -0.2994431351993315 [Eh]
	 Opposite-Spin Energy      =      -1.0401175321832627 [Eh]
	 Correlation Energy        =      -1.3395606673825942 [Eh]
	 Total Energy              =    -309.6284847954236170 [Eh]

	 ================> DF-SCS-MP2 Energies <==================
	-----------------------------------------------------------
	 SCS Same-Spin Scale       =       0.3333333333333333 [-]
	 SCS Opposite-Spin Scale   =       1.2000000000000000 [-]
	 SCS Same-Spin Energy      =      -0.0998143783997772 [Eh]
	 SCS Opposite-Spin Energy  =      -1.2481410386199152 [Eh]
	 SCS Correlation Energy    =      -1.3479554170196923 [Eh]
	 SCS Total Energy          =    -309.6368795450607081 [Eh]
	-----------------------------------------------------------

*** Psi4 exiting successfully. Buy a developer a beer!
