                               Psi4 1.9.1 release

  ==> Input File <==

--------------------------------------------------------------------------
MEMORY 10 GB

molecule dimer {
0 1
C   -1.604285   0.904735   0.815582
C   -1.613329  -0.262638  -0.137199
O   -2.903206  -0.559753  -0.625737
H   -3.485346  -0.688585   0.127148
H   -0.582036   1.146838   1.113213
H   -2.183378   0.681090   1.717452
H   -2.043517   1.785981   0.343064
H   -1.163724  -1.144697   0.344271
H   -0.995953  -0.038058  -1.010236
--
0 1
C    1.952342  -1.151209   0.460550
C    2.563812   0.055049  -0.193818
O    1.527944   0.977572  -0.454703
H    1.893312   1.751214  -0.887803
H    2.713795  -1.896737   0.694150
H    1.210476  -1.608001  -0.197857
H    1.450411  -0.867626   1.388394
H    3.071878  -0.236948  -1.123827
H    3.324938   0.497354   0.464849

units ang
no_reorient
no_com
symmetry c1
}

set {
basis        aug-cc-pVTZ
scf_type     df
}

energy("mp2", bsse_type="cp")
--------------------------------------------------------------------------

                               Psi4 1.9.1 release
    Molecular point group: c1
  Charge       = 0
  Multiplicity = 1
  Basis Set: AUG-CC-PVTZ
    Blend: AUG-CC-PVTZ
  Basis Set: (AUG-CC-PVTZ AUX)
    Blend: AUG-CC-PVTZ-JKFIT
  @DF-RHF Final Energy:  -154.14567486725710
    Total Energy =                       -154.1456748672570995
 Dipole X            :        -99.4922331          100.1276792            0.6354461
 Dipole Y            :          2.1863974           -2.1110660            0.0753315
 Dipole Z            :          3.0636981           -3.2112607           -0.1475627
 Magnitude           :                                                    0.6566896
  Basis Set: (AUG-CC-PVTZ AUX)
    Blend: AUG-CC-PVTZ-RI
	 Reference Energy          =    -154.1456748672570995 [Eh]
	 Singles Energy            =      -0.0000000000000000 [Eh]
	 Same-Spin Energy          =      -0.1481202994676678 [Eh]
	 Opposite-Spin Energy      =      -0.5180648534513101 [Eh]
	 Correlation Energy        =      -0.6661851529189780 [Eh]
	 Total Energy              =    -154.8118600201760842 [Eh]
	 SCS Total Energy          =    -154.8167261245545490 [Eh]
                               Psi4 1.9.1 release
    Molecular point group: c1
  Multiplicity = 1
  Basis Set: AUG-CC-PVTZ
    Blend: AUG-CC-PVTZ
  Basis Set: (AUG-CC-PVTZ AUX)
    Blend: AUG-CC-PVTZ-JKFIT
  @DF-RHF Final Energy:  -154.14499434317673
    Total Energy =                       -154.1449943431767338
  Basis Set: (AUG-CC-PVTZ AUX)
	 Singles Energy            =      -0.0000000000000000 [Eh]
	 Same-Spin Energy          =      -0.1482076785288617 [Eh]
	 Opposite-Spin Energy      =      -0.5182744467479738 [Eh]
	 Correlation Energy        =      -0.6664821252768356 [Eh]
	 Total Energy              =    -154.8114764684535771 [Eh]
	 SCS Total Energy          =    -154.8163262387839154 [Eh]
                               Psi4 1.9.1 release
    Molecular point group: c1

    Geometry (in Bohr), charge = 0, multiplicity = 1:

       Center              X                  Y                   Z               Mass
    ------------   -----------------  -----------------  -----------------  -----------------
         C           -3.031659277180     1.709701366116     1.541226612853    12.000000000000
         C           -3.048749960259    -0.496313890138    -0.259268534687    12.000000000000
         O           -5.486264225786    -1.057779867903    -1.182471556566    15.994914619570
         H           -6.586349392460    -1.301237064098     0.240274897400     1.007825032230
         H           -1.099888635157     2.167209730268     2.103667689299     1.007825032230
         H           -4.125986448350     1.287073566788     3.245513913620     1.007825032230
         H           -3.861687462717     3.375014955271     0.648297003504     1.007825032230
         H           -2.199119645622    -2.163163826633     0.650577902937     1.007825032230
         H           -1.882078403828    -0.071919196883    -1.909069362078     1.007825032230
         C            3.689391683229    -2.175469723162     0.870313367080    12.000000000000
         C            4.844902517162     0.104027533480    -0.366262938184    12.000000000000
         O            2.887395695037     1.847343347916    -0.859264138424    15.994914619570
         H            3.577841150043     3.309314847068    -1.677704523360     1.007825032230
         H            5.128329310637    -3.584313462023     1.311753389987     1.007825032230
         H            2.287468121440    -3.038681499462    -0.373895542005     1.007825032230
         H            2.740879559351    -1.639575519326     2.623684414229     1.007825032230
         H            5.805008110819    -0.447766825975    -2.123725242395     1.007825032230
         H            6.283222204128     0.939862847401     0.878437299693     1.007825032230

  Charge       = 0
  Multiplicity = 1
  Basis Set: AUG-CC-PVTZ
    Blend: AUG-CC-PVTZ
  Basis Set: (AUG-CC-PVTZ AUX)
    Blend: AUG-CC-PVTZ-JKFIT

    Orbital Energies [Eh]
    ---------------------

    Doubly Occupied:

       1A    -20.562057     2A    -20.543593     3A    -11.278947
       4A    -11.257123     5A    -11.215865     6A    -11.201629
       7A     -1.369105     8A     -1.349765     9A     -1.019886
      10A     -0.999125    11A     -0.839691    12A     -0.832924
      13A     -0.710635    14A     -0.672759    15A     -0.651752
      16A     -0.613004    17A     -0.599470    18A     -0.580296
      19A     -0.538972    20A     -0.530900    21A     -0.528135
      22A     -0.511931    23A     -0.494437    24A     -0.466017
      25A     -0.445797    26A     -0.428759

  @DF-RHF Final Energy:  -308.28920603763140

   => Energetics <=

    Nuclear Repulsion Energy =            249.4581247359753320
    One-Electron Energy =                -915.0095068851352380
    Two-Electron Energy =                 357.2621761115285608
    Total Energy =                       -308.2892060376314021
 Dipole X            :          1.0089209            0.0000000            1.0089209
 Dipole Y            :          0.1947784           -0.0000019            0.1947765
 Dipole Z            :          0.4816839           -0.0000227            0.4816612
 Magnitude           :                                                    1.1348378
  Basis Set: (AUG-CC-PVTZ AUX)
    Blend: AUG-CC-PVTZ-RI
	 Reference Energy          =    -308.2892060376314021 [Eh]
	 Singles Energy            =      -0.0000000000000000 [Eh]
	 Same-Spin Energy          =      -0.2985136549757231 [Eh]
	 Opposite-Spin Energy      =      -1.0384971701323304 [Eh]
	 Correlation Energy        =      -1.3370108251080537 [Eh]
	 Total Energy              =    -309.6262168627394544 [Eh]

	 ================> DF-SCS-MP2 Energies <==================
	-----------------------------------------------------------
	 SCS Same-Spin Scale       =       0.3333333333333333 [-]
	 SCS Opposite-Spin Scale   =       1.2000000000000000 [-]
	 SCS Same-Spin Energy      =      -0.0995045516585744 [Eh]
	 SCS Opposite-Spin Energy  =      -1.2461966041587964 [Eh]
	 SCS Correlation Energy    =      -1.3457011558173708 [Eh]
	 SCS Total Energy          =    -309.6349071934487824 [Eh]
	-----------------------------------------------------------

*** Psi4 exiting successfully. Buy a developer a beer!
