                               Psi4 1.9.1 release

  ==> Input File <==

--------------------------------------------------------------------------
MEMORY 10 GB

molecule dimer {
0 1
C   -1.593383  -1.115858   0.591644
C   -1.764270  -0.123712  -0.529372
O   -1.862939   1.204783  -0.058805
H   -2.583391   1.248279   0.574950
H   -1.478930  -2.129891   0.203014
H   -2.458898  -1.109118   1.262035
H   -0.702776  -0.873489   1.176003
H   -2.637502  -0.383753  -1.144722
H   -0.887162  -0.148794  -1.180624
--
0 1
C    1.625389   1.264971   0.088206
C    2.097317  -0.135053   0.361724
O    1.513242  -0.993398  -0.597254
H    1.828698  -1.887056  -0.450836
H    2.084511   1.967305   0.786209
H    0.539622   1.343080   0.186799
H    1.897259   1.562903  -0.926434
H    1.811527  -0.437927   1.380738
H    3.194302  -0.184703   0.308121

units ang
no_reorient
no_com
symmetry c1
}

set {
basis        aug-cc-pVTZ
scf_type     df
}

energy("mp2", bsse_type="cp")
--------------------------------------------------------------------------

                               Psi4 1.9.1 release
    Molecular point group: c1
  Charge       = 0
  Multiplicity = 1
  Basis Set: AUG-CC-PVTZ
    Blend: AUG-CC-PVTZ
  Basis Set: (AUG-CC-PVTZ AUX)
    Blend: AUG-CC-PVTZ-JKFIT
  @DF-RHF Final Energy:  -154.14563140451588
    Total Energy =                       -154.1456314045158820
 Dipole X            :        -86.1197826           86.5458491            0.4260665
 Dipole Y            :         -2.4273419            2.2599726           -0.1673693
 Dipole Z            :          1.9759284           -1.5001685            0.4757599
 Magnitude           :                                                    0.6602216
  Basis Set: (AUG-CC-PVTZ AUX)
    Blend: AUG-CC-PVTZ-RI
	 Reference Energy          =    -154.1456314045158820 [Eh]
	 Singles Energy            =      -0.0000000000000000 [Eh]
	 Same-Spin Energy          =      -0.1481346396339150 [Eh]
	 Opposite-Spin Energy      =      -0.5186178614894819 [Eh]
	 Correlation Energy        =      -0.6667525011233968 [Eh]
	 Total Energy              =    -154.8123839056392796 [Eh]
	 SCS Total Energy          =    -154.8173510515145779 [Eh]
                               Psi4 1.9.1 release
    Molecular point group: c1
  Multiplicity = 1
  Basis Set: AUG-CC-PVTZ
    Blend: AUG-CC-PVTZ
  Basis Set: (AUG-CC-PVTZ AUX)
    Blend: AUG-CC-PVTZ-JKFIT
  @DF-RHF Final Energy:  -154.14507229986106
    Total Energy =                       -154.1450722998610559
  Basis Set: (AUG-CC-PVTZ AUX)
	 Singles Energy            =      -0.0000000000000000 [Eh]
	 Same-Spin Energy          =      -0.1482382395963995 [Eh]
	 Opposite-Spin Energy      =      -0.5185868423202193 [Eh]
	 Correlation Energy        =      -0.6668250819166188 [Eh]
	 Total Energy              =    -154.8118973817776691 [Eh]
	 SCS Total Energy          =    -154.8167892571774473 [Eh]
                               Psi4 1.9.1 release
    Molecular point group: c1

    Geometry (in Bohr), charge = 0, multiplicity = 1:

       Center              X                  Y                   Z               Mass
    ------------   -----------------  -----------------  -----------------  -----------------
         C           -3.011057482960    -2.108666014901     1.118045123770    12.000000000000
         C           -3.333987111361    -0.233781798433    -1.000368098486    12.000000000000
         O           -3.520444498434     2.276709910607    -0.111125344808    15.994914619570
         H           -4.881901464973     2.358905438160     1.086498035832     1.007825032230
         H           -2.794772658723    -4.024910667077     0.383640859634     1.007825032230
         H           -4.646643790436    -2.095929260816     2.384900510742     1.007825032230
         H           -1.328054167545    -1.650654983600     2.222323592717     1.007825032230
         H           -4.984156435347    -0.725188069823    -2.163211069786     1.007825032230
         H           -1.676493208913    -0.281179909111    -2.231056017143     1.007825032230
         C            3.071540057332     2.390448746647     0.166685182622    12.000000000000
         C            3.963354728267    -0.255213182421     0.683559293005    12.000000000000
         O            2.859612941540    -1.877250153578    -1.128646487334    15.994914619570
         H            3.455738386172    -3.566019023402    -0.851956567497     1.007825032230
         H            3.939154895504     3.717667655244     1.485719687370     1.007825032230
         H            1.019737791272     2.538053364580     0.352998950509     1.007825032230
         H            3.585299899060     2.953458630656    -1.750706533312     1.007825032230
         H            3.423289898872    -0.827562092943     2.609216671012     1.007825032230
         H            6.036355942002    -0.349038084550     0.582264303502     1.007825032230

  Charge       = 0
  Multiplicity = 1
  Basis Set: AUG-CC-PVTZ
    Blend: AUG-CC-PVTZ
  Basis Set: (AUG-CC-PVTZ AUX)
    Blend: AUG-CC-PVTZ-JKFIT

    Orbital Energies [Eh]
    ---------------------

    Doubly Occupied:

       1A    -20.555423     2A    -20.549645     3A    -11.270975
       4A    -11.261475     5A    -11.210142     6A    -11.200212
       7A     -1.361773     8A     -1.355778     9A     -1.008473
      10A     -1.005613    11A     -0.839754    12A     -0.828013
      13A     -0.702408    14A     -0.681488    15A     -0.642975
      16A     -0.616676    17A     -0.605042    18A     -0.572242
      19A     -0.539192    20A     -0.525784    21A     -0.520137
      22A     -0.511660    23A     -0.485206    24A     -0.471645
      25A     -0.438760    26A     -0.435340

  @DF-RHF Final Energy:  -308.28842398013944

   => Energetics <=

    Nuclear Repulsion Energy =            258.0978637061883205
    One-Electron Energy =                -932.3809061931235647
    Two-Electron Energy =                 365.9946185067958595
    Total Energy =                       -308.2884239801394415
 Dipole X            :          0.0650362            0.0000038            0.0650400
 Dipole Y            :         -0.7157365            0.0000076           -0.7157289
 Dipole Z            :          0.6207394           -0.0000132            0.6207261
 Magnitude           :                                                    0.9496310
  Basis Set: (AUG-CC-PVTZ AUX)
    Blend: AUG-CC-PVTZ-RI
	 Reference Energy          =    -308.2884239801394415 [Eh]
	 Singles Energy            =      -0.0000000000000000 [Eh]
	 Same-Spin Energy          =      -0.2995345174047549 [Eh]
	 Opposite-Spin Energy      =      -1.0402132612121295 [Eh]
	 Correlation Energy        =      -1.3397477786168843 [Eh]
	 Total Energy              =    -309.6281717587563094 [Eh]

	 ================> DF-SCS-MP2 Energies <==================
	-----------------------------------------------------------
	 SCS Same-Spin Scale       =       0.3333333333333333 [-]
	 SCS Opposite-Spin Scale   =       1.2000000000000000 [-]
	 SCS Same-Spin Energy      =      -0.0998448391349183 [Eh]
	 SCS Opposite-Spin Energy  =      -1.2482559134545554 [Eh]
	 SCS Correlation Energy    =      -1.3481007525894737 [Eh]
	 SCS Total Energy          =    -309.6365247327289012 [Eh]
	-----------------------------------------------------------

*** Psi4 exiting successfully. Buy a developer a beer!
