                               Psi4 1.9.1 release

  ==> Input File <==

--------------------------------------------------------------------------
MEMORY 10 GB

molecule dimer {
0 1
C   -1.309712  -0.853776   0.863334
C   -1.701819  -0.227589  -0.444987
O   -2.876766   0.525994  -0.229083
H   -3.094015   0.998003  -1.034725
H   -0.412837  -1.466231   0.745249
H   -2.112986  -1.486037   1.246490
H   -1.103432  -0.080066   1.606280
H   -1.872359  -1.011301  -1.198893
H   -0.881844   0.407298  -0.806420
--
0 1
C    2.279357  -0.789068  -0.713279
C    2.149938   0.140264   0.460358
O    1.374803   1.246626   0.053159
H    1.239156   1.830443   0.801993
H    2.883538  -1.660403  -0.456081
H    2.749795  -0.277405  -1.554771
H    1.294997  -1.135167  -1.037562
H    3.144919   0.462465   0.799465
H    1.674180  -0.381532   1.303808

units ang
no_reorient
no_com
symmetry c1
}

set {
basis        aug-cc-pVTZ
scf_type     df
}

energy("mp2", bsse_type="cp")
--------------------------------------------------------------------------

                               Psi4 1.9.1 release
    Molecular point group: c1
  Charge       = 0
  Multiplicity = 1
  Basis Set: AUG-CC-PVTZ
    Blend: AUG-CC-PVTZ
  Basis Set: (AUG-CC-PVTZ AUX)
    Blend: AUG-CC-PVTZ-JKFIT
  @DF-RHF Final Energy:  -154.14566953665212
    Total Energy =                       -154.1456695366521217
 Dipole X            :        -95.3122279           95.5460250            0.2337971
 Dipole Y            :         -9.4054728            9.2947786           -0.1106943
 Dipole Z            :          2.9378450           -2.3345714            0.6032736
 Magnitude           :                                                    0.6563942
  Basis Set: (AUG-CC-PVTZ AUX)
    Blend: AUG-CC-PVTZ-RI
	 Reference Energy          =    -154.1456695366521217 [Eh]
	 Singles Energy            =      -0.0000000000000000 [Eh]
	 Same-Spin Energy          =      -0.1481416895619371 [Eh]
	 Opposite-Spin Energy      =      -0.5183315877042565 [Eh]
	 Correlation Energy        =      -0.6664732772661935 [Eh]
	 Total Energy              =    -154.8121428139183138 [Eh]
	 SCS Total Energy          =    -154.8170480050845299 [Eh]
                               Psi4 1.9.1 release
    Molecular point group: c1
  Multiplicity = 1
  Basis Set: AUG-CC-PVTZ
    Blend: AUG-CC-PVTZ
  Basis Set: (AUG-CC-PVTZ AUX)
    Blend: AUG-CC-PVTZ-JKFIT
  @DF-RHF Final Energy:  -154.14552009020252
    Total Energy =                       -154.1455200902025240
  Basis Set: (AUG-CC-PVTZ AUX)
	 Singles Energy            =      -0.0000000000000000 [Eh]
	 Same-Spin Energy          =      -0.1481435226863452 [Eh]
	 Opposite-Spin Energy      =      -0.5182601770280523 [Eh]
	 Correlation Energy        =      -0.6664036997143975 [Eh]
	 Total Energy              =    -154.8119237899169320 [Eh]
	 SCS Total Energy          =    -154.8168134768649793 [Eh]
                               Psi4 1.9.1 release
    Molecular point group: c1

    Geometry (in Bohr), charge = 0, multiplicity = 1:

       Center              X                  Y                   Z               Mass
    ------------   -----------------  -----------------  -----------------  -----------------
         C           -2.474996983226    -1.613402812489     1.631464814796    12.000000000000
         C           -3.215971825101    -0.430080879167    -0.840903559389    12.000000000000
         O           -5.436299867029     0.993984603634    -0.432904129998    15.994914619570
         H           -5.846840978058     1.885952342385    -1.955346865164     1.007825032230
         H           -0.780148864456    -2.770775026656     1.408316505271     1.007825032230
         H           -3.992964846927    -2.808202942297     2.355524718122     1.007825032230
         H           -2.085184278066    -0.151302811961     3.035429280800     1.007825032230
         H           -3.538245718536    -1.911081920402    -2.265579423729     1.007825032230
         H           -1.666443645378     0.769681671447    -1.523912942092     1.007825032230
         C            4.307360472145    -1.491122414363    -1.347901961040    12.000000000000
         C            4.062794006715     0.265060545261     0.869950539664    12.000000000000
         O            2.598001146458     2.355781720875     0.100455951103    15.994914619570
         H            2.341665466718     3.459035958261     1.515547124534     1.007825032230
         H            5.449097092350    -3.137706927889    -0.861868181025     1.007825032230
         H            5.196359451153    -0.524219475833    -2.938091377804     1.007825032230
         H            2.447189663290    -2.145154736658    -1.960708018182     1.007825032230
         H            5.943035596749     0.873932192610     1.510769896889     1.007825032230
         H            3.163741684719    -0.720990988098     2.463840040181     1.007825032230

  Charge       = 0
  Multiplicity = 1
  Basis Set: AUG-CC-PVTZ
    Blend: AUG-CC-PVTZ
  Basis Set: (AUG-CC-PVTZ AUX)
    Blend: AUG-CC-PVTZ-JKFIT

    Orbital Energies [Eh]
    ---------------------

    Doubly Occupied:

       1A    -20.559981     2A    -20.548354     3A    -11.277095
       4A    -11.262048     5A    -11.215475     6A    -11.206101
       7A     -1.367097     8A     -1.354048     9A     -1.019009
      10A     -1.007245    11A     -0.838221    12A     -0.825215
      13A     -0.708421    14A     -0.696044    15A     -0.653179
      16A     -0.635148    17A     -0.579171    18A     -0.567220
      19A     -0.538743    20A     -0.533366    21A     -0.525166
      22A     -0.517863    23A     -0.494411    24A     -0.479828
      25A     -0.446959    26A     -0.428699

  @DF-RHF Final Energy:  -308.28901327404617

   => Energetics <=

    Nuclear Repulsion Energy =            252.1783346583989385
    One-Electron Energy =                -920.3664779981168067
    Two-Electron Energy =                 359.8991300656716703
    Total Energy =                       -308.2890132740461695
 Dipole X            :          0.6769687           -0.0000151            0.6769536
 Dipole Y            :         -0.0782764            0.0000246           -0.0782518
 Dipole Z            :          0.0232933           -0.0000057            0.0232876
 Magnitude           :                                                    0.6818591
  Basis Set: (AUG-CC-PVTZ AUX)
    Blend: AUG-CC-PVTZ-RI
	 Reference Energy          =    -308.2890132740461695 [Eh]
	 Singles Energy            =      -0.0000000000000000 [Eh]
	 Same-Spin Energy          =      -0.2988267857088571 [Eh]
	 Opposite-Spin Energy      =      -1.0390882966364698 [Eh]
	 Correlation Energy        =      -1.3379150823453270 [Eh]
	 Total Energy              =    -309.6269283563914883 [Eh]

	 ================> DF-SCS-MP2 Energies <==================
	-----------------------------------------------------------
	 SCS Same-Spin Scale       =       0.3333333333333333 [-]
	 SCS Opposite-Spin Scale   =       1.2000000000000000 [-]
	 SCS Same-Spin Energy      =      -0.0996089285696190 [Eh]
	 SCS Opposite-Spin Energy  =      -1.2469059559637639 [Eh]
	 SCS Correlation Energy    =      -1.3465148845333830 [Eh]
	 SCS Total Energy          =    -309.6355281585795751 [Eh]
	-----------------------------------------------------------

*** Psi4 exiting successfully. Buy a developer a beer!
