                               Psi4 1.9.1 release

  ==> Input File <==

--------------------------------------------------------------------------
MEMORY 10 GB

molecule dimer {
0 1
C   -1.571475   1.325677   0.080462
C   -2.336562   0.023495   0.120476
O   -1.625917  -1.040635  -0.455430
H   -0.804526  -1.158176   0.043694
H   -2.159205   2.145253   0.500456
H   -1.309295   1.582539  -0.948909
H   -0.645891   1.241292   0.657383
H   -3.268691   0.115709  -0.445287
H   -2.624120  -0.206211   1.158094
--
0 1
C    2.596905   0.802331  -0.064548
C    1.731028  -0.368377  -0.448393
O    0.990875  -0.868841   0.652397
H    1.594941  -1.212311   1.314848
H    3.132909   1.192021  -0.932073
H    3.341341   0.513082   0.682813
H    1.989728   1.606541   0.355778
H    2.331309  -1.167616  -0.901614
H    0.982471  -0.075066  -1.188895

units ang
no_reorient
no_com
symmetry c1
}

set {
basis        aug-cc-pVTZ
scf_type     df
}

energy("mp2", bsse_type="cp")
--------------------------------------------------------------------------

                               Psi4 1.9.1 release
    Molecular point group: c1
  Charge       = 0
  Multiplicity = 1
  Basis Set: AUG-CC-PVTZ
    Blend: AUG-CC-PVTZ
  Basis Set: (AUG-CC-PVTZ AUX)
    Blend: AUG-CC-PVTZ-JKFIT
  @DF-RHF Final Energy:  -154.14522162219356
    Total Energy =                       -154.1452216221935601
 Dipole X            :        -88.6213058           89.3222460            0.7009402
 Dipole Y            :          6.6444083           -6.5958113            0.0485970
 Dipole Z            :         -2.8593391            2.7824082           -0.0769309
 Magnitude           :                                                    0.7068219
  Basis Set: (AUG-CC-PVTZ AUX)
    Blend: AUG-CC-PVTZ-RI
	 Reference Energy          =    -154.1452216221935601 [Eh]
	 Singles Energy            =      -0.0000000000000000 [Eh]
	 Same-Spin Energy          =      -0.1481994317509694 [Eh]
	 Opposite-Spin Energy      =      -0.5186945448227526 [Eh]
	 Correlation Energy        =      -0.6668939765737220 [Eh]
	 Total Energy              =    -154.8121155987672921 [Eh]
	 SCS Total Energy          =    -154.8170548865645060 [Eh]
                               Psi4 1.9.1 release
    Molecular point group: c1
  Multiplicity = 1
  Basis Set: AUG-CC-PVTZ
    Blend: AUG-CC-PVTZ
  Basis Set: (AUG-CC-PVTZ AUX)
    Blend: AUG-CC-PVTZ-JKFIT
  @DF-RHF Final Energy:  -154.14475754516837
    Total Energy =                       -154.1447575451683747
  Basis Set: (AUG-CC-PVTZ AUX)
	 Singles Energy            =      -0.0000000000000000 [Eh]
	 Same-Spin Energy          =      -0.1482897744355871 [Eh]
	 Opposite-Spin Energy      =      -0.5187438592678009 [Eh]
	 Correlation Energy        =      -0.6670336337033880 [Eh]
	 Total Energy              =    -154.8117911788717720 [Eh]
	 SCS Total Energy          =    -154.8166801011016105 [Eh]
                               Psi4 1.9.1 release
    Molecular point group: c1

    Geometry (in Bohr), charge = 0, multiplicity = 1:

       Center              X                  Y                   Z               Mass
    ------------   -----------------  -----------------  -----------------  -----------------
         C           -2.969657363004     2.505166460819     0.152051143507    12.000000000000
         C           -4.415462255152     0.044399115318     0.227666644691    12.000000000000
         O           -3.072537832726    -1.966515146566    -0.860637969317    15.994914619570
         H           -1.520333800810    -2.188635445078     0.082569693326     1.007825032230
         H           -4.080306098719     4.053940639817     0.945724777842     1.007825032230
         H           -2.474208967431     2.990565292856    -1.793178127982     1.007825032230
         H           -1.220557096898     2.345701921722     1.242273829532     1.007825032230
         H           -6.176930778749     0.218658320251    -0.841470477227     1.007825032230
         H           -4.958868120336    -0.389682314057     2.188480487536     1.007825032230
         C            4.907439223832     1.516185851965    -0.121978041946    12.000000000000
         C            3.271168835499    -0.696131640918    -0.847339966572    12.000000000000
         O            1.872482374563    -1.641871536569     1.232851655070    15.994914619570
         H            3.014001676264    -2.290935768880     2.484702616606     1.007825032230
         H            5.920339985982     2.252593225794    -1.761362698934     1.007825032230
         H            6.314219381763     0.969584459902     1.290329564902     1.007825032230
         H            3.760040984155     3.035922499319     0.672322981463     1.007825032230
         H            4.405535523815    -2.206474459703    -1.703803530879     1.007825032230
         H            1.856601116205    -0.141854181334    -2.246685941926     1.007825032230

  Charge       = 0
  Multiplicity = 1
  Basis Set: AUG-CC-PVTZ
    Blend: AUG-CC-PVTZ
  Basis Set: (AUG-CC-PVTZ AUX)
    Blend: AUG-CC-PVTZ-JKFIT

    Orbital Energies [Eh]
    ---------------------

    Doubly Occupied:

       1A    -20.576228     2A    -20.526047     3A    -11.284133
       4A    -11.255442     5A    -11.225944     6A    -11.202583
       7A     -1.382675     8A     -1.336630     9A     -1.025845
      10A     -0.996429    11A     -0.860759    12A     -0.829942
      13A     -0.711570    14A     -0.670943    15A     -0.638379
      16A     -0.623681    17A     -0.606120    18A     -0.588313
      19A     -0.560012    20A     -0.537769    21A     -0.527264
      22A     -0.508944    23A     -0.495789    24A     -0.461956
      25A     -0.456323    26A     -0.419227

  @DF-RHF Final Energy:  -308.29363405602606

   => Energetics <=

    Nuclear Repulsion Energy =            258.4595971111324388
    One-Electron Energy =                -932.8885586868709652
    Two-Electron Energy =                 366.1353275197124617
    Total Energy =                       -308.2936340560260646
 Dipole X            :          1.1886780            0.0000208            1.1886988
 Dipole Y            :          0.4018176            0.0000094            0.4018271
 Dipole Z            :          0.4881962            0.0000113            0.4882075
 Magnitude           :                                                    1.3464087
  Basis Set: (AUG-CC-PVTZ AUX)
    Blend: AUG-CC-PVTZ-RI
	 Reference Energy          =    -308.2936340560260646 [Eh]
	 Singles Energy            =      -0.0000000000000000 [Eh]
	 Same-Spin Energy          =      -0.2998646193527288 [Eh]
	 Opposite-Spin Energy      =      -1.0400278515042509 [Eh]
	 Correlation Energy        =      -1.3398924708569797 [Eh]
	 Total Energy              =    -309.6335265268830312 [Eh]

	 ================> DF-SCS-MP2 Energies <==================
	-----------------------------------------------------------
	 SCS Same-Spin Scale       =       0.3333333333333333 [-]
	 SCS Opposite-Spin Scale   =       1.2000000000000000 [-]
	 SCS Same-Spin Energy      =      -0.0999548731175763 [Eh]
	 SCS Opposite-Spin Energy  =      -1.2480334218051010 [Eh]
	 SCS Correlation Energy    =      -1.3479882949226774 [Eh]
	 SCS Total Energy          =    -309.6416223509487509 [Eh]
	-----------------------------------------------------------

*** Psi4 exiting successfully. Buy a developer a beer!
