                               Psi4 1.9.1 release

  ==> Input File <==

--------------------------------------------------------------------------
MEMORY 10 GB

molecule dimer {
0 1
C   -3.049734   0.433855  -0.130178
C   -1.633731  -0.001616  -0.395745
O   -1.023983  -0.564458   0.756160
H   -1.565757  -1.295725   1.065474
H   -3.486902   0.899170  -1.015473
H   -3.085027   1.151817   0.691144
H   -3.679000  -0.420016   0.137809
H   -1.005772   0.849745  -0.670117
H   -1.589027  -0.707903  -1.234970
--
0 1
C    1.930412   1.262100   0.117611
C    2.458001  -0.151473   0.050541
O    1.519197  -1.052955  -0.474116
H    0.716443  -0.998360   0.066641
H    2.685782   1.951509   0.501544
H    1.060123   1.315122   0.778646
H    1.625976   1.603140  -0.874944
H    2.798071  -0.468570   1.048537
H    3.333683  -0.197821  -0.604014

units ang
no_reorient
no_com
symmetry c1
}

set {
basis        aug-cc-pVTZ
scf_type     df
}

energy("mp2", bsse_type="cp")
--------------------------------------------------------------------------

                               Psi4 1.9.1 release
    Molecular point group: c1
  Charge       = 0
  Multiplicity = 1
  Basis Set: AUG-CC-PVTZ
    Blend: AUG-CC-PVTZ
  Basis Set: (AUG-CC-PVTZ AUX)
    Blend: AUG-CC-PVTZ-JKFIT
  @DF-RHF Final Energy:  -154.14464896455243
    Total Energy =                       -154.1446489645524309
 Dipole X            :        -95.9018721           95.8169229           -0.0849492
 Dipole Y            :         -2.2738190            2.7309226            0.4571036
 Dipole Z            :          4.0624883           -3.5292639            0.5332244
 Magnitude           :                                                    0.7074520
  Basis Set: (AUG-CC-PVTZ AUX)
    Blend: AUG-CC-PVTZ-RI
	 Reference Energy          =    -154.1446489645524309 [Eh]
	 Singles Energy            =      -0.0000000000000000 [Eh]
	 Same-Spin Energy          =      -0.1483141279348721 [Eh]
	 Opposite-Spin Energy      =      -0.5187076218428259 [Eh]
	 Correlation Energy        =      -0.6670217497776980 [Eh]
	 Total Energy              =    -154.8116707143301198 [Eh]
	 SCS Total Energy          =    -154.8165361534087765 [Eh]
                               Psi4 1.9.1 release
    Molecular point group: c1
  Multiplicity = 1
  Basis Set: AUG-CC-PVTZ
    Blend: AUG-CC-PVTZ
  Basis Set: (AUG-CC-PVTZ AUX)
    Blend: AUG-CC-PVTZ-JKFIT
  @DF-RHF Final Energy:  -154.14505120922024
    Total Energy =                       -154.1450512092202416
  Basis Set: (AUG-CC-PVTZ AUX)
	 Singles Energy            =      -0.0000000000000000 [Eh]
	 Same-Spin Energy          =      -0.1482680999786242 [Eh]
	 Opposite-Spin Energy      =      -0.5188359728680194 [Eh]
	 Correlation Energy        =      -0.6671040728466436 [Eh]
	 Total Energy              =    -154.8121552820668967 [Eh]
	 SCS Total Energy          =    -154.8170770766547264 [Eh]
                               Psi4 1.9.1 release
    Molecular point group: c1

    Geometry (in Bohr), charge = 0, multiplicity = 1:

       Center              X                  Y                   Z               Mass
    ------------   -----------------  -----------------  -----------------  -----------------
         C           -5.763162015497     0.819867128161    -0.246000767560    12.000000000000
         C           -3.087304152670    -0.003053797419    -0.747849665519    12.000000000000
         O           -1.935047427125    -1.066671029324     1.428935307026    15.994914619570
         H           -2.958851909018    -2.448565383909     2.013454053796     1.007825032230
         H           -6.589289806311     1.699185040228    -1.918965857797     1.007825032230
         H           -5.829856119643     2.176618676646     1.306072873253     1.007825032230
         H           -6.952302415559    -0.793715208310     0.260421267623     1.007825032230
         H           -1.900633624654     1.605785326477    -1.266337602013     1.007825032230
         H           -3.002825835958    -1.337742793390    -2.333755073157     1.007825032230
         C            3.647949989297     2.385023342940     0.222252579341    12.000000000000
         C            4.644948706101    -0.286242485401     0.095508648107    12.000000000000
         O            2.870866260617    -1.989796572431    -0.895949391698    15.994914619570
         H            1.353881054501    -1.886626974612     0.125933238727     1.007825032230
         H            5.075392412684     3.687817541366     0.947780799867     1.007825032230
         H            2.003342129299     2.485220401564     1.471427688683     1.007825032230
         H            3.072649326567     3.029495540766    -1.653404535113     1.007825032230
         H            5.287587869586    -0.885468970606     1.981447762409     1.007825032230
         H            6.299747859095    -0.373827511864    -1.141421035942     1.007825032230

  Charge       = 0
  Multiplicity = 1
  Basis Set: AUG-CC-PVTZ
    Blend: AUG-CC-PVTZ
  Basis Set: (AUG-CC-PVTZ AUX)
    Blend: AUG-CC-PVTZ-JKFIT

    Orbital Energies [Eh]
    ---------------------

    Doubly Occupied:

       1A    -20.576676     2A    -20.527092     3A    -11.284002
       4A    -11.256204     5A    -11.226982     6A    -11.203860
       7A     -1.382517     8A     -1.337606     9A     -1.026054
      10A     -0.997360    11A     -0.861980    12A     -0.830760
      13A     -0.703776    14A     -0.674337    15A     -0.638353
      16A     -0.627182    17A     -0.607579    18A     -0.591647
      19A     -0.556965    20A     -0.538189    21A     -0.526970
      22A     -0.510013    23A     -0.496851    24A     -0.467713
      25A     -0.452863    26A     -0.419959

  @DF-RHF Final Energy:  -308.29374712981712

   => Energetics <=

    Nuclear Repulsion Energy =            255.3607221726340697
    One-Electron Energy =                -926.6619476764435603
    Two-Electron Energy =                 363.0074783739923987
    Total Energy =                       -308.2937471298171204
 Dipole X            :         -1.0120748           -0.0000132           -1.0120881
 Dipole Y            :          0.2712318           -0.0000000            0.2712318
 Dipole Z            :          0.2640104            0.0000057            0.2640161
 Magnitude           :                                                    1.0805524
  Basis Set: (AUG-CC-PVTZ AUX)
    Blend: AUG-CC-PVTZ-RI
	 Reference Energy          =    -308.2937471298171204 [Eh]
	 Singles Energy            =      -0.0000000000000000 [Eh]
	 Same-Spin Energy          =      -0.2996843666086929 [Eh]
	 Opposite-Spin Energy      =      -1.0399262880770268 [Eh]
	 Correlation Energy        =      -1.3396106546857196 [Eh]
	 Total Energy              =    -309.6333577845028344 [Eh]

	 ================> DF-SCS-MP2 Energies <==================
	-----------------------------------------------------------
	 SCS Same-Spin Scale       =       0.3333333333333333 [-]
	 SCS Opposite-Spin Scale   =       1.2000000000000000 [-]
	 SCS Same-Spin Energy      =      -0.0998947888695643 [Eh]
	 SCS Opposite-Spin Energy  =      -1.2479115456924321 [Eh]
	 SCS Correlation Energy    =      -1.3478063345619964 [Eh]
	 SCS Total Energy          =    -309.6415534643791148 [Eh]
	-----------------------------------------------------------

*** Psi4 exiting successfully. Buy a developer a beer!
