                               Psi4 1.9.1 release

  ==> Input File <==

--------------------------------------------------------------------------
MEMORY 10 GB

molecule dimer {
0 1
C   -1.963748   1.265020   0.028353
C   -2.365107  -0.173974   0.233460
O   -1.621145  -1.064613  -0.568591
H   -1.732855  -0.809637  -1.488026
H   -2.544648   1.931845   0.668723
H   -2.132959   1.572447  -1.008276
H   -0.904374   1.406432   0.254396
H   -3.443328  -0.299177   0.059353
H   -2.177816  -0.477973   1.267136
--
0 1
C    1.310325  -0.415454   1.080624
C    1.739443  -0.185319  -0.339788
O    2.987505   0.473444  -0.322679
H    3.279455   0.612922  -1.225116
H    0.352608  -0.937769   1.101386
H    1.209457   0.535502   1.609213
H    2.051543  -1.016275   1.610802
H    0.982179   0.415920  -0.865441
H    1.804386  -1.146516  -0.869892

units ang
no_reorient
no_com
symmetry c1
}

set {
basis        aug-cc-pVTZ
scf_type     df
}

energy("mp2", bsse_type="cp")
--------------------------------------------------------------------------

                               Psi4 1.9.1 release
    Molecular point group: c1
  Charge       = 0
  Multiplicity = 1
  Basis Set: AUG-CC-PVTZ
    Blend: AUG-CC-PVTZ
  Basis Set: (AUG-CC-PVTZ AUX)
    Blend: AUG-CC-PVTZ-JKFIT
  @DF-RHF Final Energy:  -154.14556198879916
    Total Energy =                       -154.1455619887991588
 Dipole X            :        -98.3722640           98.0357335           -0.3365305
 Dipole Y            :          2.3687863           -2.5573701           -0.1885839
 Dipole Z            :         -6.6277675            6.0934899           -0.5342776
 Magnitude           :                                                    0.6589910
  Basis Set: (AUG-CC-PVTZ AUX)
    Blend: AUG-CC-PVTZ-RI
	 Reference Energy          =    -154.1455619887991588 [Eh]
	 Singles Energy            =      -0.0000000000000000 [Eh]
	 Same-Spin Energy          =      -0.1481319615893958 [Eh]
	 Opposite-Spin Energy      =      -0.5181548042772328 [Eh]
	 Correlation Energy        =      -0.6662867658666286 [Eh]
	 Total Energy              =    -154.8118487546657889 [Eh]
	 SCS Total Energy          =    -154.8167250744616297 [Eh]
                               Psi4 1.9.1 release
    Molecular point group: c1
  Multiplicity = 1
  Basis Set: AUG-CC-PVTZ
    Blend: AUG-CC-PVTZ
  Basis Set: (AUG-CC-PVTZ AUX)
    Blend: AUG-CC-PVTZ-JKFIT
  @DF-RHF Final Energy:  -154.14515113886617
    Total Energy =                       -154.1451511388661686
  Basis Set: (AUG-CC-PVTZ AUX)
	 Singles Energy            =      -0.0000000000000000 [Eh]
	 Same-Spin Energy          =      -0.1482090158352861 [Eh]
	 Opposite-Spin Energy      =      -0.5184672121811453 [Eh]
	 Correlation Energy        =      -0.6666762280164313 [Eh]
	 Total Energy              =    -154.8118273668825964 [Eh]
	 SCS Total Energy          =    -154.8167147987619785 [Eh]
                               Psi4 1.9.1 release
    Molecular point group: c1

    Geometry (in Bohr), charge = 0, multiplicity = 1:

       Center              X                  Y                   Z               Mass
    ------------   -----------------  -----------------  -----------------  -----------------
         C           -3.710945899416     2.390541343227     0.053579404835    12.000000000000
         C           -4.469404487403    -0.328763212950     0.441175461249    12.000000000000
         O           -3.063520059655    -2.011826999602    -1.074481267400    15.994914619570
         H           -3.274621365130    -1.529992191037    -2.811961607561     1.007825032230
         H           -4.808687805694     3.650657966835     1.263703323795     1.007825032230
         H           -4.030708346830     2.971494176798    -1.905365498872     1.007825032230
         H           -1.709019174985     2.657771294080     0.480738767412     1.007825032230
         H           -6.506946880120    -0.565362593036     0.112160914724     1.007825032230
         H           -4.115475791640    -0.903238065363     2.394540003708     1.007825032230
         C            2.476155385341    -0.785094277726     2.042083404597    12.000000000000
         C            3.287070880845    -0.350202155844    -0.642106260717    12.000000000000
         O            5.645566248436     0.894679495741    -0.609774936437    15.994914619570
         H            6.197271790763     1.158254716268    -2.315133711916     1.007825032230
         H            0.666332549645    -1.772126578944     2.081317898413     1.007825032230
         H            2.285542490518     1.011952119635     3.040971847526     1.007825032230
         H            3.876854404600    -1.920481418150     3.043974622340     1.007825032230
         H            1.856049316176     0.785974890100    -1.635446467742     1.007825032230
         H            3.409795364610    -2.166601238455    -1.643857638727     1.007825032230

  Charge       = 0
  Multiplicity = 1
  Basis Set: AUG-CC-PVTZ
    Blend: AUG-CC-PVTZ
  Basis Set: (AUG-CC-PVTZ AUX)
    Blend: AUG-CC-PVTZ-JKFIT

    Orbital Energies [Eh]
    ---------------------

    Doubly Occupied:

       1A    -20.561059     2A    -20.549560     3A    -11.277825
       4A    -11.264792     5A    -11.221323     6A    -11.200140
       7A     -1.368308     8A     -1.355632     9A     -1.018697
      10A     -1.005309    11A     -0.853243    12A     -0.824020
      13A     -0.699383    14A     -0.690653    15A     -0.638362
      16A     -0.630741    17A     -0.616407    18A     -0.567247
      19A     -0.550254    20A     -0.531929    21A     -0.519887
      22A     -0.515772    23A     -0.485729    24A     -0.481056
      25A     -0.448658    26A     -0.431602

  @DF-RHF Final Energy:  -308.28855757290859

   => Energetics <=

    Nuclear Repulsion Energy =            250.6829160763873006
    One-Electron Energy =                -917.3277625238131350
    Two-Electron Energy =                 358.3562888745172472
    Total Energy =                       -308.2885575729085872
 Dipole X            :         -0.7940954            0.0000113           -0.7940840
 Dipole Y            :          0.3376761            0.0000132            0.3376894
 Dipole Z            :         -0.7424196           -0.0000151           -0.7424348
 Magnitude           :                                                    1.1383378
  Basis Set: (AUG-CC-PVTZ AUX)
    Blend: AUG-CC-PVTZ-RI
	 Reference Energy          =    -308.2885575729085872 [Eh]
	 Singles Energy            =      -0.0000000000000000 [Eh]
	 Same-Spin Energy          =      -0.2987960906292974 [Eh]
	 Opposite-Spin Energy      =      -1.0390388392357459 [Eh]
	 Correlation Energy        =      -1.3378349298650432 [Eh]
	 Total Energy              =    -309.6263925027736263 [Eh]

	 ================> DF-SCS-MP2 Energies <==================
	-----------------------------------------------------------
	 SCS Same-Spin Scale       =       0.3333333333333333 [-]
	 SCS Opposite-Spin Scale   =       1.2000000000000000 [-]
	 SCS Same-Spin Energy      =      -0.0995986968764324 [Eh]
	 SCS Opposite-Spin Energy  =      -1.2468466070828950 [Eh]
	 SCS Correlation Energy    =      -1.3464453039593274 [Eh]
	 SCS Total Energy          =    -309.6350028768679294 [Eh]
	-----------------------------------------------------------

*** Psi4 exiting successfully. Buy a developer a beer!
