                               Psi4 1.9.1 release

  ==> Input File <==

--------------------------------------------------------------------------
MEMORY 10 GB

molecule dimer {
0 1
C   -2.238295  -0.891233   0.270374
C   -1.634164   0.196707  -0.579583
O   -1.258240   1.328567   0.180839
H   -2.031489   1.643969   0.655470
H   -2.490229  -1.765300  -0.333306
H   -3.156000  -0.546994   0.757987
H   -1.536574  -1.205588   1.045787
H   -2.325259   0.483848  -1.384965
H   -0.716836  -0.166607  -1.050354
--
0 1
C    2.204068   0.925718  -0.184110
C    1.625578  -0.240101   0.574992
O    1.303689  -1.328256  -0.269274
H    2.092839  -1.573245  -0.759082
H    2.419202   1.760279   0.486142
H    1.499722   1.273872  -0.941991
H    3.138932   0.647749  -0.681409
H    0.687535   0.058665   1.050497
H    2.311441  -0.559684   1.372672

units ang
no_reorient
no_com
symmetry c1
}

set {
basis        aug-cc-pVTZ
scf_type     df
}

energy("mp2", bsse_type="cp")
--------------------------------------------------------------------------

                               Psi4 1.9.1 release
    Molecular point group: c1
  Charge       = 0
  Multiplicity = 1
  Basis Set: AUG-CC-PVTZ
    Blend: AUG-CC-PVTZ
  Basis Set: (AUG-CC-PVTZ AUX)
    Blend: AUG-CC-PVTZ-JKFIT
  @DF-RHF Final Energy:  -154.14506042911592
    Total Energy =                       -154.1450604291159152
 Dipole X            :        -85.4770957           86.0903646            0.6132689
 Dipole Y            :          9.6385520           -9.2685586            0.3699934
 Dipole Z            :         -1.3039636            1.3566892            0.0527255
 Magnitude           :                                                    0.7181739
  Basis Set: (AUG-CC-PVTZ AUX)
    Blend: AUG-CC-PVTZ-RI
	 Reference Energy          =    -154.1450604291159152 [Eh]
	 Singles Energy            =      -0.0000000000000000 [Eh]
	 Same-Spin Energy          =      -0.1482389942635758 [Eh]
	 Opposite-Spin Energy      =      -0.5186280535203887 [Eh]
	 Correlation Energy        =      -0.6668670477839644 [Eh]
	 Total Energy              =    -154.8119274768998821 [Eh]
	 SCS Total Energy          =    -154.8168270914282516 [Eh]
                               Psi4 1.9.1 release
    Molecular point group: c1
  Multiplicity = 1
  Basis Set: AUG-CC-PVTZ
    Blend: AUG-CC-PVTZ
  Basis Set: (AUG-CC-PVTZ AUX)
    Blend: AUG-CC-PVTZ-JKFIT
  @DF-RHF Final Energy:  -154.14509417781215
    Total Energy =                       -154.1450941778121546
  Basis Set: (AUG-CC-PVTZ AUX)
	 Singles Energy            =      -0.0000000000000000 [Eh]
	 Same-Spin Energy          =      -0.1482314733219249 [Eh]
	 Opposite-Spin Energy      =      -0.5186335384225618 [Eh]
	 Correlation Energy        =      -0.6668650117444866 [Eh]
	 Total Energy              =    -154.8119591895566316 [Eh]
	 SCS Total Energy          =    -154.8168649150265423 [Eh]
                               Psi4 1.9.1 release
    Molecular point group: c1

    Geometry (in Bohr), charge = 0, multiplicity = 1:

       Center              X                  Y                   Z               Mass
    ------------   -----------------  -----------------  -----------------  -----------------
         C           -4.229764537982    -1.684186283970     0.510932811445    12.000000000000
         C           -3.088122404083     0.371722356960    -1.095253136971    12.000000000000
         O           -2.377729000096     2.510627769321     0.341736182802    15.994914619570
         H           -3.838957836880     3.106651168743     1.238658783454     1.007825032230
         H           -4.705850799673    -3.335933529271    -0.629857055972     1.007825032230
         H           -5.963975651945    -1.033668852269     1.432387836657     1.007825032230
         H           -2.903704031499    -2.278231140138     1.976251015564     1.007825032230
         H           -4.394102680756     0.914340206351    -2.617204543345     1.007825032230
         H           -1.354623716869    -0.314841600584    -1.984881394779     1.007825032230
         C            4.165084881886     1.749353489407    -0.347917476958    12.000000000000
         C            3.071897215569    -0.453725132449     1.086577404329    12.000000000000
         O            2.463615162772    -2.510040064496    -0.508854112707    15.994914619570
         H            3.954892534677    -2.973002178246    -1.434457086765     1.007825032230
         H            4.571629222160     3.326445214395     0.918675238082     1.007825032230
         H            2.834063844324     2.407269198889    -1.780105002646     1.007825032230
         H            5.931721806436     1.224068208039    -1.287676389422     1.007825032230
         H            1.299252851667     0.110860783150     1.985151625615     1.007825032230
         H            4.367990445154    -1.057649476801     2.593974140084     1.007825032230

  Charge       = 0
  Multiplicity = 1
  Basis Set: AUG-CC-PVTZ
    Blend: AUG-CC-PVTZ
  Basis Set: (AUG-CC-PVTZ AUX)
    Blend: AUG-CC-PVTZ-JKFIT

    Orbital Energies [Eh]
    ---------------------

    Doubly Occupied:

       1A    -20.551621     2A    -20.551327     3A    -11.262618
       4A    -11.262467     5A    -11.209378     6A    -11.208077
       7A     -1.358092     8A     -1.356233     9A     -1.006269
      10A     -1.005165    11A     -0.840314    12A     -0.839670
      13A     -0.689173    14A     -0.675042    15A     -0.622179
      16A     -0.614722    17A     -0.606584    18A     -0.601721
      19A     -0.539751    20A     -0.533280    21A     -0.519540
      22A     -0.514277    23A     -0.478153    24A     -0.470059
      25A     -0.440601    26A     -0.432632

  @DF-RHF Final Energy:  -308.28896168579575

   => Energetics <=

    Nuclear Repulsion Energy =            258.9151832852791699
    One-Electron Energy =                -934.0303942590866200
    Two-Electron Energy =                 366.8262492880117520
    Total Energy =                       -308.2889616857957549
 Dipole X            :         -0.0197245           -0.0000038           -0.0197283
 Dipole Y            :          0.0279610           -0.0000038            0.0279572
 Dipole Z            :          0.0236207            0.0000113            0.0236320
 Magnitude           :                                                    0.0415847
  Basis Set: (AUG-CC-PVTZ AUX)
    Blend: AUG-CC-PVTZ-RI
	 Reference Energy          =    -308.2889616857957549 [Eh]
	 Singles Energy            =      -0.0000000000000000 [Eh]
	 Same-Spin Energy          =      -0.2996438473274863 [Eh]
	 Opposite-Spin Energy      =      -1.0402650916459832 [Eh]
	 Correlation Energy        =      -1.3399089389734695 [Eh]
	 Total Energy              =    -309.6288706247692062 [Eh]

	 ================> DF-SCS-MP2 Energies <==================
	-----------------------------------------------------------
	 SCS Same-Spin Scale       =       0.3333333333333333 [-]
	 SCS Opposite-Spin Scale   =       1.2000000000000000 [-]
	 SCS Same-Spin Energy      =      -0.0998812824424954 [Eh]
	 SCS Opposite-Spin Energy  =      -1.2483181099751799 [Eh]
	 SCS Correlation Energy    =      -1.3481993924176754 [Eh]
	 SCS Total Energy          =    -309.6371610782134098 [Eh]
	-----------------------------------------------------------

*** Psi4 exiting successfully. Buy a developer a beer!
