                               Psi4 1.9.1 release

  ==> Input File <==

--------------------------------------------------------------------------
MEMORY 10 GB

molecule dimer {
0 1
C    1.862056   1.099689  -0.494237
C    2.153424  -0.323352  -0.096233
O    1.266077  -0.794372   0.907334
H    1.314340  -0.198953   1.660400
H    2.551382   1.436913  -1.270552
H    1.970395   1.774971   0.360395
H    0.842008   1.182592  -0.875164
H    3.192826  -0.436332   0.237400
H    2.013241  -0.995254  -0.946438
--
0 1
C   -2.077708   0.940977   0.550635
C   -2.226848  -0.356201  -0.208957
O   -1.029206  -0.767024  -0.812739
H   -0.363226  -0.887019  -0.117518
H   -3.023024   1.250559   1.002007
H   -1.735270   1.737998  -0.113271
H   -1.342478   0.834299   1.354149
H   -2.958255  -0.238640  -1.014122
H   -2.622455  -1.136636   0.458708

units ang
no_reorient
no_com
symmetry c1
}

set {
basis        aug-cc-pVTZ
scf_type     df
}

energy("mp2", bsse_type="cp")
--------------------------------------------------------------------------

                               Psi4 1.9.1 release
    Molecular point group: c1
  Charge       = 0
  Multiplicity = 1
  Basis Set: AUG-CC-PVTZ
    Blend: AUG-CC-PVTZ
  Basis Set: (AUG-CC-PVTZ AUX)
    Blend: AUG-CC-PVTZ-JKFIT
  @DF-RHF Final Energy:  -154.14469429696859
    Total Energy =                       -154.1446942969685949
 Dipole X            :         87.0145551          -87.1271307           -0.1125756
 Dipole Y            :          2.1582457           -2.0162905            0.1419552
 Dipole Z            :          6.1241896           -5.4459847            0.6782049
 Magnitude           :                                                    0.7019875
  Basis Set: (AUG-CC-PVTZ AUX)
    Blend: AUG-CC-PVTZ-RI
	 Reference Energy          =    -154.1446942969685949 [Eh]
	 Singles Energy            =      -0.0000000000000000 [Eh]
	 Same-Spin Energy          =      -0.1483081214724181 [Eh]
	 Opposite-Spin Energy      =      -0.5187469439059733 [Eh]
	 Correlation Energy        =      -0.6670550653783914 [Eh]
	 Total Energy              =    -154.8117493623469727 [Eh]
	 SCS Total Energy          =    -154.8166266701465759 [Eh]
                               Psi4 1.9.1 release
    Molecular point group: c1
  Multiplicity = 1
  Basis Set: AUG-CC-PVTZ
    Blend: AUG-CC-PVTZ
  Basis Set: (AUG-CC-PVTZ AUX)
    Blend: AUG-CC-PVTZ-JKFIT
  @DF-RHF Final Energy:  -154.14502147917645
    Total Energy =                       -154.1450214791764495
  Basis Set: (AUG-CC-PVTZ AUX)
	 Singles Energy            =      -0.0000000000000000 [Eh]
	 Same-Spin Energy          =      -0.1482706264439416 [Eh]
	 Opposite-Spin Energy      =      -0.5188801026134430 [Eh]
	 Correlation Energy        =      -0.6671507290573846 [Eh]
	 Total Energy              =    -154.8121722082338465 [Eh]
	 SCS Total Energy          =    -154.8171011444605654 [Eh]
                               Psi4 1.9.1 release
    Molecular point group: c1

    Geometry (in Bohr), charge = 0, multiplicity = 1:

       Center              X                  Y                   Z               Mass
    ------------   -----------------  -----------------  -----------------  -----------------
         C            3.518775870266     2.078111033179    -0.933972571068    12.000000000000
         C            4.069381591988    -0.611046722119    -0.181854014231    12.000000000000
         O            2.392538783741    -1.501145521732     1.714612764316    15.994914619570
         H            2.483742635734    -0.375966681838     3.137701258710     1.007825032230
         H            4.821413221423     2.715372036110    -2.400995308153     1.007825032230
         H            3.723506908971     3.354209070630     0.681047846984     1.007825032230
         H            1.591164515444     2.234774998157    -1.653820274860     1.007825032230
         H            6.033566706241    -0.824547979773     0.448620982184     1.007825032230
         H            3.804474114543    -1.880757485266    -1.788508614726     1.007825032230
         C           -3.926299088673     1.778188820355     1.040549345091    12.000000000000
         C           -4.208132843024    -0.673122335614    -0.394871501997    12.000000000000
         O           -1.944917466678    -1.449465291653    -1.535854121478    15.994914619570
         H           -0.686397661646    -1.676222978077    -0.222076834812     1.007825032230
         H           -5.712687430686     2.363214013726     1.893518805792     1.007825032230
         H           -3.279185053723     3.284340226593    -0.214051167957     1.007825032230
         H           -2.536915749452     1.576596616743     2.558970743063     1.007825032230
         H           -5.590291759266    -0.450964242579    -1.916412837802     1.007825032230
         H           -4.955721726338    -2.147930744336     0.866832491557     1.007825032230

  Charge       = 0
  Multiplicity = 1
  Basis Set: AUG-CC-PVTZ
    Blend: AUG-CC-PVTZ
  Basis Set: (AUG-CC-PVTZ AUX)
    Blend: AUG-CC-PVTZ-JKFIT

    Orbital Energies [Eh]
    ---------------------

    Doubly Occupied:

       1A    -20.574403     2A    -20.530705     3A    -11.281733
       4A    -11.260623     5A    -11.219767     6A    -11.210282
       7A     -1.380254     8A     -1.341535     9A     -1.021235
      10A     -1.002768    11A     -0.857035    12A     -0.836080
      13A     -0.706469    14A     -0.671014    15A     -0.635295
      16A     -0.624124    17A     -0.612915    18A     -0.595559
      19A     -0.554914    20A     -0.534722    21A     -0.530629
      22A     -0.515391    23A     -0.492056    24A     -0.470847
      25A     -0.451669    26A     -0.423871

  @DF-RHF Final Energy:  -308.29307549031682

   => Energetics <=

    Nuclear Repulsion Energy =            259.5355755675540763
    One-Electron Energy =                -934.9855086296074660
    Two-Electron Energy =                 367.1568575717365093
    Total Energy =                       -308.2930754903168236
 Dipole X            :          0.5024694           -0.0000076            0.5024619
 Dipole Y            :          0.7097454            0.0000151            0.7097605
 Dipole Z            :          0.6711990            0.0000038            0.6712028
 Magnitude           :                                                    1.0985177
  Basis Set: (AUG-CC-PVTZ AUX)
    Blend: AUG-CC-PVTZ-RI
	 Reference Energy          =    -308.2930754903168236 [Eh]
	 Singles Energy            =      -0.0000000000000000 [Eh]
	 Same-Spin Energy          =      -0.2999567749163279 [Eh]
	 Opposite-Spin Energy      =      -1.0402608294606468 [Eh]
	 Correlation Energy        =      -1.3402176043769747 [Eh]
	 Total Energy              =    -309.6332930946937836 [Eh]

	 ================> DF-SCS-MP2 Energies <==================
	-----------------------------------------------------------
	 SCS Same-Spin Scale       =       0.3333333333333333 [-]
	 SCS Opposite-Spin Scale   =       1.2000000000000000 [-]
	 SCS Same-Spin Energy      =      -0.0999855916387760 [Eh]
	 SCS Opposite-Spin Energy  =      -1.2483129953527761 [Eh]
	 SCS Correlation Energy    =      -1.3482985869915520 [Eh]
	 SCS Total Energy          =    -309.6413740773083987 [Eh]
	-----------------------------------------------------------

*** Psi4 exiting successfully. Buy a developer a beer!
