                               Psi4 1.9.1 release

  ==> Input File <==

--------------------------------------------------------------------------
MEMORY 10 GB

molecule dimer {
0 1
C   -1.561199  -1.033777   0.763288
C   -1.765305  -0.232995  -0.490294
O   -1.963881   1.117319  -0.115357
H   -2.119058   1.639605  -0.904518
H   -1.349225  -2.076807   0.524120
H   -2.445053  -0.989218   1.402398
H   -0.715180  -0.635929   1.328583
H   -2.633315  -0.613137  -1.047424
H   -0.882498  -0.336163  -1.135983
--
0 1
C    1.595624   1.227825   0.308453
C    2.036644  -0.212945   0.368473
O    1.607757  -0.960660  -0.749963
H    1.968123  -0.550018  -1.540121
H    1.934300   1.777102   1.189646
H    0.505964   1.305189   0.253840
H    2.019469   1.724696  -0.570169
H    1.602558  -0.710377   1.240361
H    3.128326  -0.276867   0.482310

units ang
no_reorient
no_com
symmetry c1
}

set {
basis        aug-cc-pVTZ
scf_type     df
}

energy("mp2", bsse_type="cp")
--------------------------------------------------------------------------

                               Psi4 1.9.1 release
    Molecular point group: c1
  Charge       = 0
  Multiplicity = 1
  Basis Set: AUG-CC-PVTZ
    Blend: AUG-CC-PVTZ
  Basis Set: (AUG-CC-PVTZ AUX)
    Blend: AUG-CC-PVTZ-JKFIT
  @DF-RHF Final Energy:  -154.14511418050782
    Total Energy =                       -154.1451141805078180
 Dipole X            :        -86.1976020           86.5766762            0.3790741
 Dipole Y            :         -2.5573576            3.1628819            0.6055242
 Dipole Z            :          1.6862624           -1.6672695            0.0189930
 Magnitude           :                                                    0.7146450
  Basis Set: (AUG-CC-PVTZ AUX)
    Blend: AUG-CC-PVTZ-RI
	 Reference Energy          =    -154.1451141805078180 [Eh]
	 Singles Energy            =      -0.0000000000000000 [Eh]
	 Same-Spin Energy          =      -0.1482218670215164 [Eh]
	 Opposite-Spin Energy      =      -0.5187700926771954 [Eh]
	 Correlation Energy        =      -0.6669919596987118 [Eh]
	 Total Energy              =    -154.8121061402065379 [Eh]
	 SCS Total Energy          =    -154.8170455807276369 [Eh]
                               Psi4 1.9.1 release
    Molecular point group: c1
  Multiplicity = 1
  Basis Set: AUG-CC-PVTZ
    Blend: AUG-CC-PVTZ
  Basis Set: (AUG-CC-PVTZ AUX)
    Blend: AUG-CC-PVTZ-JKFIT
  @DF-RHF Final Energy:  -154.14556579909464
    Total Energy =                       -154.1455657990946406
  Basis Set: (AUG-CC-PVTZ AUX)
	 Singles Energy            =      -0.0000000000000000 [Eh]
	 Same-Spin Energy          =      -0.1481823461241986 [Eh]
	 Opposite-Spin Energy      =      -0.5185746637100921 [Eh]
	 Correlation Energy        =      -0.6667570098342906 [Eh]
	 Total Energy              =    -154.8123228089289398 [Eh]
	 SCS Total Energy          =    -154.8172495109214708 [Eh]
                               Psi4 1.9.1 release
    Molecular point group: c1

    Geometry (in Bohr), charge = 0, multiplicity = 1:

       Center              X                  Y                   Z               Mass
    ------------   -----------------  -----------------  -----------------  -----------------
         C           -2.950238537339    -1.953555404797     1.442405274848    12.000000000000
         C           -3.335942977901    -0.440296738601    -0.926521380955    12.000000000000
         O           -3.711197232990     2.111426904770    -0.217993136654    15.994914619570
         H           -4.004439263960     3.098404403931    -1.709291295547     1.007825032230
         H           -2.549665731621    -3.924596445434     0.990443256875     1.007825032230
         H           -4.620480532229    -1.869351098373     2.650148138890     1.007825032230
         H           -1.351494330405    -1.201731645236     2.510658004939     1.007825032230
         H           -4.976244152060    -1.158661007385    -1.979344497232     1.007825032230
         H           -1.667679526264    -0.635256003512    -2.146696753176     1.007825032230
         C            3.015292359208     2.320252979990     0.582891692576    12.000000000000
         C            3.848699375057    -0.402407729786     0.696313054626    12.000000000000
         O            3.038220406288    -1.815384299682    -1.417224674227    15.994914619570
         H            3.719213451214    -1.039383384072    -2.910406890066     1.007825032230
         H            3.655297244473     3.358236077003     2.248105126246     1.007825032230
         H            0.956133389341     2.466449751960     0.479688079686     1.007825032230
         H            3.816243328852     3.259203089673    -1.077463255226     1.007825032230
         H            3.028395720161    -1.342417975824     2.343942586699     1.007825032230
         H            5.911679371149    -0.523202803177     0.911433807570     1.007825032230

  Charge       = 0
  Multiplicity = 1
  Basis Set: AUG-CC-PVTZ
    Blend: AUG-CC-PVTZ
  Basis Set: (AUG-CC-PVTZ AUX)
    Blend: AUG-CC-PVTZ-JKFIT

    Orbital Energies [Eh]
    ---------------------

    Doubly Occupied:

       1A    -20.556564     2A    -20.551944     3A    -11.271731
       4A    -11.263936     5A    -11.210836     6A    -11.203282
       7A     -1.363182     8A     -1.357252     9A     -1.011194
      10A     -1.006625    11A     -0.845880    12A     -0.825606
      13A     -0.697527    14A     -0.689110    15A     -0.641126
      16A     -0.623786    17A     -0.606957    18A     -0.568644
      19A     -0.543577    20A     -0.525243    21A     -0.521551
      22A     -0.518859    23A     -0.482605    24A     -0.477657
      25A     -0.444028    26A     -0.432302

  @DF-RHF Final Energy:  -308.28813536135311

   => Energetics <=

    Nuclear Repulsion Energy =            257.6036338661306786
    One-Electron Energy =                -931.3015317215108553
    Two-Electron Energy =                 365.4097624940271203
    Total Energy =                       -308.2881353613531132
 Dipole X            :          0.3711652            0.0000057            0.3711709
 Dipole Y            :          0.3272410           -0.0000076            0.3272335
 Dipole Z            :         -0.6156392            0.0000057           -0.6156336
 Magnitude           :                                                    0.7898444
  Basis Set: (AUG-CC-PVTZ AUX)
    Blend: AUG-CC-PVTZ-RI
	 Reference Energy          =    -308.2881353613531132 [Eh]
	 Singles Energy            =      -0.0000000000000000 [Eh]
	 Same-Spin Energy          =      -0.2995424325782048 [Eh]
	 Opposite-Spin Energy      =      -1.0403388078078764 [Eh]
	 Correlation Energy        =      -1.3398812403860811 [Eh]
	 Total Energy              =    -309.6280166017392048 [Eh]

	 ================> DF-SCS-MP2 Energies <==================
	-----------------------------------------------------------
	 SCS Same-Spin Scale       =       0.3333333333333333 [-]
	 SCS Opposite-Spin Scale   =       1.2000000000000000 [-]
	 SCS Same-Spin Energy      =      -0.0998474775260683 [Eh]
	 SCS Opposite-Spin Energy  =      -1.2484065693694515 [Eh]
	 SCS Correlation Energy    =      -1.3482540468955198 [Eh]
	 SCS Total Energy          =    -309.6363894082486468 [Eh]
	-----------------------------------------------------------

*** Psi4 exiting successfully. Buy a developer a beer!
