                               Psi4 1.9.1 release

  ==> Input File <==

--------------------------------------------------------------------------
MEMORY 10 GB

molecule dimer {
0 1
C   -1.996943   0.956004   0.584861
C   -2.232015  -0.351656  -0.132587
O   -1.109857  -0.777828  -0.860710
H   -0.364786  -0.863805  -0.245421
H   -2.886970   1.273319   1.133176
H   -1.732546   1.741938  -0.126468
H   -1.175299   0.859544   1.300322
H   -3.048917  -0.247609  -0.853104
H   -2.550425  -1.120063   0.588861
--
0 1
C    1.740731   1.156265  -0.426737
C    2.240365  -0.208929  -0.050019
O    1.262325  -0.825552   0.776306
H    1.580138  -1.687319   1.054270
H    2.468113   1.668618  -1.057893
H    1.571017   1.761794   0.465829
H    0.799038   1.079626  -0.974589
H    3.194372  -0.136309   0.487701
H    2.413697  -0.812794  -0.950564

units ang
no_reorient
no_com
symmetry c1
}

set {
basis        aug-cc-pVTZ
scf_type     df
}

energy("mp2", bsse_type="cp")
--------------------------------------------------------------------------

                               Psi4 1.9.1 release
    Molecular point group: c1
  Charge       = 0
  Multiplicity = 1
  Basis Set: AUG-CC-PVTZ
    Blend: AUG-CC-PVTZ
  Basis Set: (AUG-CC-PVTZ AUX)
    Blend: AUG-CC-PVTZ-JKFIT
  @DF-RHF Final Energy:  -154.14561692329212
    Total Energy =                       -154.1456169232921241
 Dipole X            :        -86.3555222           86.9492300            0.5937078
 Dipole Y            :         -2.0425212            1.8013172           -0.2412041
 Dipole Z            :         -4.6687827            4.4874684           -0.1813144
 Magnitude           :                                                    0.6659904
  Basis Set: (AUG-CC-PVTZ AUX)
    Blend: AUG-CC-PVTZ-RI
	 Reference Energy          =    -154.1456169232921241 [Eh]
	 Singles Energy            =      -0.0000000000000000 [Eh]
	 Same-Spin Energy          =      -0.1481723094221675 [Eh]
	 Opposite-Spin Energy      =      -0.5187243245498594 [Eh]
	 Correlation Energy        =      -0.6668966339720269 [Eh]
	 Total Energy              =    -154.8125135572641398 [Eh]
	 SCS Total Energy          =    -154.8174768825593333 [Eh]
                               Psi4 1.9.1 release
    Molecular point group: c1
  Multiplicity = 1
  Basis Set: AUG-CC-PVTZ
    Blend: AUG-CC-PVTZ
  Basis Set: (AUG-CC-PVTZ AUX)
    Blend: AUG-CC-PVTZ-JKFIT
  @DF-RHF Final Energy:  -154.14467153867719
    Total Energy =                       -154.1446715386771871
  Basis Set: (AUG-CC-PVTZ AUX)
	 Singles Energy            =      -0.0000000000000000 [Eh]
	 Same-Spin Energy          =      -0.1483254884825799 [Eh]
	 Opposite-Spin Energy      =      -0.5188798806981645 [Eh]
	 Correlation Energy        =      -0.6672053691807444 [Eh]
	 Total Energy              =    -154.8118769078579362 [Eh]
	 SCS Total Energy          =    -154.8167692250091818 [Eh]
                               Psi4 1.9.1 release
    Molecular point group: c1

    Geometry (in Bohr), charge = 0, multiplicity = 1:

       Center              X                  Y                   Z               Mass
    ------------   -----------------  -----------------  -----------------  -----------------
         C           -3.773675358150     1.806585734842     1.105227111461    12.000000000000
         C           -4.217897057914    -0.664533530374    -0.250553117796    12.000000000000
         O           -2.097325768422    -1.469881892713    -1.626506173443    15.994914619570
         H           -0.689345634401    -1.632354875801    -0.463778475436     1.007825032230
         H           -5.455582632413     2.406224180342     2.141392291942     1.007825032230
         H           -3.274037439757     3.291785747528    -0.238989883634     1.007825032230
         H           -2.220993225524     1.624302752781     2.457252454908     1.007825032230
         H           -5.761618109253    -0.467913196198    -1.612132916533     1.007825032230
         H           -4.819604753521    -2.116612313259     1.112786015963     1.007825032230
         C            3.289504848094     2.185024178452    -0.806416057599    12.000000000000
         C            4.233676271061    -0.394818589666    -0.094522211069    12.000000000000
         O            2.385448531319    -1.560067182324     1.467005729550    15.994914619570
         H            2.986028060429    -3.188570796281     1.992281562286     1.007825032230
         H            4.664057616682     3.153231028009    -1.999128040039     1.007825032230
         H            2.968791868438     3.329308149475     0.880289231296     1.007825032230
         H            1.509962983834     2.040197457924    -1.841706294884     1.007825032230
         H            6.036488222831    -0.257586678435     0.921621321112     1.007825032230
         H            4.561226279839    -1.535958056415    -1.796305624720     1.007825032230

  Charge       = 0
  Multiplicity = 1
  Basis Set: AUG-CC-PVTZ
    Blend: AUG-CC-PVTZ
  Basis Set: (AUG-CC-PVTZ AUX)
    Blend: AUG-CC-PVTZ-JKFIT

    Orbital Energies [Eh]
    ---------------------

    Doubly Occupied:

       1A    -20.576826     2A    -20.527509     3A    -11.284713
       4A    -11.256486     5A    -11.214574     6A    -11.202446
       7A     -1.381989     8A     -1.338008     9A     -1.023662
      10A     -0.996852    11A     -0.844802    12A     -0.829620
      13A     -0.720979    14A     -0.675828    15A     -0.653491
      16A     -0.607915    17A     -0.594861    18A     -0.587041
      19A     -0.541012    20A     -0.537232    21A     -0.525598
      22A     -0.512567    23A     -0.499835    24A     -0.464518
      25A     -0.451124    26A     -0.420001

  @DF-RHF Final Energy:  -308.29418237168767

   => Energetics <=

    Nuclear Repulsion Energy =            259.5498692463590942
    One-Electron Energy =                -935.1491298338439719
    Two-Electron Energy =                 367.3050782157972094
    Total Energy =                       -308.2941823716876684
 Dipole X            :          0.8355886            0.0000076            0.8355962
 Dipole Y            :         -0.0874143            0.0000076           -0.0874068
 Dipole Z            :          0.5386707           -0.0000076            0.5386631
 Magnitude           :                                                    0.9980075
  Basis Set: (AUG-CC-PVTZ AUX)
    Blend: AUG-CC-PVTZ-RI
	 Reference Energy          =    -308.2941823716876684 [Eh]
	 Singles Energy            =      -0.0000000000000000 [Eh]
	 Same-Spin Energy          =      -0.2999182771597871 [Eh]
	 Opposite-Spin Energy      =      -1.0402634665069650 [Eh]
	 Correlation Energy        =      -1.3401817436667520 [Eh]
	 Total Energy              =    -309.6343641153544013 [Eh]

	 ================> DF-SCS-MP2 Energies <==================
	-----------------------------------------------------------
	 SCS Same-Spin Scale       =       0.3333333333333333 [-]
	 SCS Opposite-Spin Scale   =       1.2000000000000000 [-]
	 SCS Same-Spin Energy      =      -0.0999727590532624 [Eh]
	 SCS Opposite-Spin Energy  =      -1.2483161598083579 [Eh]
	 SCS Correlation Energy    =      -1.3482889188616203 [Eh]
	 SCS Total Energy          =    -309.6424712905492811 [Eh]
	-----------------------------------------------------------

*** Psi4 exiting successfully. Buy a developer a beer!
