                               Psi4 1.9.1 release

  ==> Input File <==

--------------------------------------------------------------------------
MEMORY 10 GB

molecule dimer {
0 1
C    1.961236   1.130612   0.253374
C    2.127837  -0.331967  -0.067556
O    3.478073  -0.737879  -0.101090
H    3.885435  -0.487135   0.731717
H    0.905357   1.405926   0.227749
H    2.506620   1.746306  -0.464824
H    2.346453   1.356068   1.252949
H    1.725393  -0.547687  -1.061124
H    1.551409  -0.939749   0.645958
--
0 1
C   -3.531567  -0.476223   0.459530
C   -2.628547   0.404930  -0.365731
O   -1.274443   0.020449  -0.279714
H   -1.200308  -0.896139  -0.558121
H   -4.567701  -0.135197   0.411110
H   -3.215951  -0.477591   1.504500
H   -3.506330  -1.508503   0.097813
H   -2.668502   1.436402  -0.006663
H   -2.964672   0.422629  -1.412336

units ang
no_reorient
no_com
symmetry c1
}

set {
basis        aug-cc-pVTZ
scf_type     df
}

energy("mp2", bsse_type="cp")
--------------------------------------------------------------------------

                               Psi4 1.9.1 release
    Molecular point group: c1
  Charge       = 0
  Multiplicity = 1
  Basis Set: AUG-CC-PVTZ
    Blend: AUG-CC-PVTZ
  Basis Set: (AUG-CC-PVTZ AUX)
    Blend: AUG-CC-PVTZ-JKFIT
  @DF-RHF Final Energy:  -154.14515579277958
    Total Energy =                       -154.1451557927795761
 Dipole X            :        122.7955155         -123.3607394           -0.5652239
 Dipole Y            :          2.2914711           -2.6882582           -0.3967872
 Dipole Z            :          2.9269299           -3.0965336           -0.1696037
 Magnitude           :                                                    0.7111143
  Basis Set: (AUG-CC-PVTZ AUX)
    Blend: AUG-CC-PVTZ-RI
	 Reference Energy          =    -154.1451557927795761 [Eh]
	 Singles Energy            =      -0.0000000000000000 [Eh]
	 Same-Spin Energy          =      -0.1481644250040062 [Eh]
	 Opposite-Spin Energy      =      -0.5178968429542670 [Eh]
	 Correlation Energy        =      -0.6660612679582731 [Eh]
	 Total Energy              =    -154.8112170607378459 [Eh]
	 SCS Total Energy          =    -154.8160201459926952 [Eh]
                               Psi4 1.9.1 release
    Molecular point group: c1
  Multiplicity = 1
  Basis Set: AUG-CC-PVTZ
    Blend: AUG-CC-PVTZ
  Basis Set: (AUG-CC-PVTZ AUX)
    Blend: AUG-CC-PVTZ-JKFIT
  @DF-RHF Final Energy:  -154.14499196005838
    Total Energy =                       -154.1449919600583769
  Basis Set: (AUG-CC-PVTZ AUX)
	 Singles Energy            =      -0.0000000000000000 [Eh]
	 Same-Spin Energy          =      -0.1481780367659890 [Eh]
	 Opposite-Spin Energy      =      -0.5179379419388568 [Eh]
	 Correlation Energy        =      -0.6661159787048457 [Eh]
	 Total Energy              =    -154.8111079387632287 [Eh]
	 SCS Total Energy          =    -154.8159101693069886 [Eh]
                               Psi4 1.9.1 release
    Molecular point group: c1

    Geometry (in Bohr), charge = 0, multiplicity = 1:

       Center              X                  Y                   Z               Mass
    ------------   -----------------  -----------------  -----------------  -----------------
         C            3.706198907388     2.136547034156     0.478807467312    12.000000000000
         C            4.021029169616    -0.627326712690    -0.127662338131    12.000000000000
         O            6.572605414349    -1.394389223727    -0.191032414023    15.994914619570
         H            7.342408028268    -0.920551736125     1.382744731342     1.007825032230
         H            1.710876775766     2.656815092660     0.430383235347     1.007825032230
         H            4.736825300595     3.300040071244    -0.878390056540     1.007825032230
         H            4.434153536259     2.562597127497     2.367730459166     1.007825032230
         H            3.260520228782    -1.034978432474    -2.005233745150     1.007825032230
         H            2.931738118570    -1.775868236673     1.220683708548     1.007825032230
         C           -6.673694423705    -0.899931044644     0.868385846432    12.000000000000
         C           -4.967233937894     0.765206799982    -0.691131425590    12.000000000000
         O           -2.408348232507     0.038643009539    -0.528582853456    15.994914619570
         H           -2.268253386196    -1.693457280342    -1.054695834867     1.007825032230
         H           -8.631703912980    -0.255485302984     0.776885307437     1.007825032230
         H           -6.077266622892    -0.902516189984     2.843092955751     1.007825032230
         H           -6.626003405477    -2.850657529432     0.184839781509     1.007825032230
         H           -5.042737945236     2.714406386060    -0.012591245174     1.007825032230
         H           -5.602418131813     0.798653062676    -2.668928237125     1.007825032230

  Charge       = 0
  Multiplicity = 1
  Basis Set: AUG-CC-PVTZ
    Blend: AUG-CC-PVTZ
  Basis Set: (AUG-CC-PVTZ AUX)
    Blend: AUG-CC-PVTZ-JKFIT

    Orbital Energies [Eh]
    ---------------------

    Doubly Occupied:

       1A    -20.562043     2A    -20.546686     3A    -11.278564
       4A    -11.262170     5A    -11.222309     6A    -11.202605
       7A     -1.369151     8A     -1.353215     9A     -1.019425
      10A     -1.001451    11A     -0.854007    12A     -0.836300
      13A     -0.693568    14A     -0.675719    15A     -0.633917
      16A     -0.617908    17A     -0.612434    18A     -0.602098
      19A     -0.549729    20A     -0.532520    21A     -0.530230
      22A     -0.512303    23A     -0.485902    24A     -0.470241
      25A     -0.449141    26A     -0.431894

  @DF-RHF Final Energy:  -308.29045655577886

   => Energetics <=

    Nuclear Repulsion Energy =            237.8407308245093930
    One-Electron Energy =                -891.6513066476314862
    Two-Electron Energy =                 345.5201192673432615
    Total Energy =                       -308.2904565557788601
 Dipole X            :         -1.0538655           -0.0000057           -1.0538711
 Dipole Y            :         -0.0082598            0.0000038           -0.0082561
 Dipole Z            :          0.3285992           -0.0000038            0.3285954
 Magnitude           :                                                    1.1039418
  Basis Set: (AUG-CC-PVTZ AUX)
    Blend: AUG-CC-PVTZ-RI
	 Reference Energy          =    -308.2904565557788601 [Eh]
	 Singles Energy            =      -0.0000000000000000 [Eh]
	 Same-Spin Energy          =      -0.2975078244841723 [Eh]
	 Opposite-Spin Energy      =      -1.0369031644573088 [Eh]
	 Correlation Energy        =      -1.3344109889414812 [Eh]
	 Total Energy              =    -309.6248675447203595 [Eh]

	 ================> DF-SCS-MP2 Energies <==================
	-----------------------------------------------------------
	 SCS Same-Spin Scale       =       0.3333333333333333 [-]
	 SCS Opposite-Spin Scale   =       1.2000000000000000 [-]
	 SCS Same-Spin Energy      =      -0.0991692748280574 [Eh]
	 SCS Opposite-Spin Energy  =      -1.2442837973487706 [Eh]
	 SCS Correlation Energy    =      -1.3434530721768281 [Eh]
	 SCS Total Energy          =    -309.6339096279556884 [Eh]
	-----------------------------------------------------------

*** Psi4 exiting successfully. Buy a developer a beer!
