                               Psi4 1.9.1 release

  ==> Input File <==

--------------------------------------------------------------------------
MEMORY 10 GB

molecule dimer {
0 1
C   -2.825279   0.590260   0.018664
C   -1.748480  -0.355750  -0.437794
O   -0.991884  -0.748233   0.679967
H   -0.124952  -1.045192   0.366962
H   -3.465444   0.891656  -0.812574
H   -2.382291   1.486317   0.459883
H   -3.448317   0.116000   0.779602
H   -1.109689   0.133620  -1.188475
H   -2.199527  -1.229700  -0.932538
--
0 1
C    1.512454   1.350659  -0.065268
C    2.324197   0.117047   0.210332
O    1.650626  -0.996929  -0.359426
H    2.190534  -1.782865  -0.252928
H    2.009402   2.232889   0.340535
H    0.524394   1.266641   0.393528
H    1.384845   1.491032  -1.140578
H    2.446890  -0.023945   1.292421
H    3.326865   0.211537  -0.225768

units ang
no_reorient
no_com
symmetry c1
}

set {
basis        aug-cc-pVTZ
scf_type     df
}

energy("mp2", bsse_type="cp")
--------------------------------------------------------------------------

                               Psi4 1.9.1 release
    Molecular point group: c1
  Charge       = 0
  Multiplicity = 1
  Basis Set: AUG-CC-PVTZ
    Blend: AUG-CC-PVTZ
  Basis Set: (AUG-CC-PVTZ AUX)
    Blend: AUG-CC-PVTZ-JKFIT
  @DF-RHF Final Energy:  -154.14558951932270
    Total Energy =                       -154.1455895193226979
 Dipole X            :        -90.3130117           90.9106496            0.5976380
 Dipole Y            :         -7.9757875            7.9861584            0.0103709
 Dipole Z            :          3.3140045           -3.0194309            0.2945736
 Magnitude           :                                                    0.6663725
  Basis Set: (AUG-CC-PVTZ AUX)
    Blend: AUG-CC-PVTZ-RI
	 Reference Energy          =    -154.1455895193226979 [Eh]
	 Singles Energy            =      -0.0000000000000000 [Eh]
	 Same-Spin Energy          =      -0.1481500982584176 [Eh]
	 Opposite-Spin Energy      =      -0.5186224846386288 [Eh]
	 Correlation Energy        =      -0.6667725828970464 [Eh]
	 Total Energy              =    -154.8123621022197369 [Eh]
	 SCS Total Energy          =    -154.8173198669751969 [Eh]
                               Psi4 1.9.1 release
    Molecular point group: c1
  Multiplicity = 1
  Basis Set: AUG-CC-PVTZ
    Blend: AUG-CC-PVTZ
  Basis Set: (AUG-CC-PVTZ AUX)
    Blend: AUG-CC-PVTZ-JKFIT
  @DF-RHF Final Energy:  -154.14452620224381
    Total Energy =                       -154.1445262022438101
  Basis Set: (AUG-CC-PVTZ AUX)
	 Singles Energy            =      -0.0000000000000000 [Eh]
	 Same-Spin Energy          =      -0.1482696892788646 [Eh]
	 Opposite-Spin Energy      =      -0.5188358381156992 [Eh]
	 Correlation Energy        =      -0.6671055273945639 [Eh]
	 Total Energy              =    -154.8116317296383784 [Eh]
	 SCS Total Energy          =    -154.8165524377422742 [Eh]
                               Psi4 1.9.1 release
    Molecular point group: c1

    Geometry (in Bohr), charge = 0, multiplicity = 1:

       Center              X                  Y                   Z               Mass
    ------------   -----------------  -----------------  -----------------  -----------------
         C           -5.339003538007     1.115429742813     0.035269848406    12.000000000000
         C           -3.304148335841    -0.672270069132    -0.827310759369    12.000000000000
         O           -1.874389108224    -1.413955448030     1.284951404349    15.994914619570
         H           -0.236125058828    -1.975126628520     0.693457678450     1.007825032230
         H           -6.548740063111     1.684985638121    -1.535542316668     1.007825032230
         H           -4.501877541143     2.808732065612     0.869052919754     1.007825032230
         H           -6.516374723760     0.219208230553     1.473234266859     1.007825032230
         H           -2.097008294433     0.252505204884    -2.245892256953     1.007825032230
         H           -4.156503635550    -2.323796216475    -1.762241421582     1.007825032230
         C            2.858123837353     2.552375598885    -0.123338644756    12.000000000000
         C            4.392095791611     0.221186773806     0.397469875420    12.000000000000
         O            3.119231075560    -1.883922776527    -0.679216702369    15.994914619570
         H            4.139509328504    -3.369126568664    -0.477964649460     1.007825032230
         H            3.797219455947     4.219548678547     0.643517886133     1.007825032230
         H            0.990961041833     2.393604589276     0.743660142699     1.007825032230
         H            2.616977776210     2.817642124294    -2.155380044722     1.007825032230
         H            4.623951959122    -0.045249492074     2.442321728790     1.007825032230
         H            6.286863706371     0.399746995401    -0.426639687892     1.007825032230

  Charge       = 0
  Multiplicity = 1
  Basis Set: AUG-CC-PVTZ
    Blend: AUG-CC-PVTZ
  Basis Set: (AUG-CC-PVTZ AUX)
    Blend: AUG-CC-PVTZ-JKFIT

    Orbital Energies [Eh]
    ---------------------

    Doubly Occupied:

       1A    -20.577149     2A    -20.527206     3A    -11.285369
       4A    -11.256040     5A    -11.215311     6A    -11.199749
       7A     -1.382320     8A     -1.337729     9A     -1.024262
      10A     -0.998420    11A     -0.844367    12A     -0.817540
      13A     -0.723892    14A     -0.687217    15A     -0.654495
      16A     -0.628333    17A     -0.590931    18A     -0.555246
      19A     -0.541629    20A     -0.536299    21A     -0.525343
      22A     -0.510050    23A     -0.500150    24A     -0.470280
      25A     -0.453977    26A     -0.417690

  @DF-RHF Final Energy:  -308.29354220072975

   => Energetics <=

    Nuclear Repulsion Energy =            258.1270570588870328
    One-Electron Energy =                -932.3192031015865950
    Two-Electron Energy =                 365.8986038419697593
    Total Energy =                       -308.2935422007297461
 Dipole X            :          1.0640343           -0.0000038            1.0640305
 Dipole Y            :          0.0027507           -0.0000189            0.0027318
 Dipole Z            :         -0.3361470            0.0000038           -0.3361432
 Magnitude           :                                                    1.1158677
  Basis Set: (AUG-CC-PVTZ AUX)
    Blend: AUG-CC-PVTZ-RI
	 Reference Energy          =    -308.2935422007297461 [Eh]
	 Singles Energy            =      -0.0000000000000000 [Eh]
	 Same-Spin Energy          =      -0.3000142758633551 [Eh]
	 Opposite-Spin Energy      =      -1.0402170043864778 [Eh]
	 Correlation Energy        =      -1.3402312802498328 [Eh]
	 Total Energy              =    -309.6337734809795847 [Eh]

	 ================> DF-SCS-MP2 Energies <==================
	-----------------------------------------------------------
	 SCS Same-Spin Scale       =       0.3333333333333333 [-]
	 SCS Opposite-Spin Scale   =       1.2000000000000000 [-]
	 SCS Same-Spin Energy      =      -0.1000047586211184 [Eh]
	 SCS Opposite-Spin Energy  =      -1.2482604052637734 [Eh]
	 SCS Correlation Energy    =      -1.3482651638848917 [Eh]
	 SCS Total Energy          =    -309.6418073646146354 [Eh]
	-----------------------------------------------------------

*** Psi4 exiting successfully. Buy a developer a beer!
