                               Psi4 1.9.1 release

  ==> Input File <==

--------------------------------------------------------------------------
MEMORY 10 GB

molecule dimer {
0 1
C    1.447113   0.504977   1.091606
C    1.635198  -0.309395  -0.155937
O    2.907118  -0.011819  -0.690990
H    3.040177  -0.530152  -1.486406
H    0.472155   0.294529   1.534282
H    1.509027   1.571559   0.863457
H    2.226329   0.272116   1.819833
H    0.838755  -0.076688  -0.879678
H    1.544353  -1.379853   0.079056
--
0 1
C   -2.027932   1.165505  -0.282143
C   -2.262596  -0.307312  -0.466646
O   -1.594041  -0.990302   0.572194
H   -1.758617  -1.931289   0.488629
H   -2.554023   1.741064  -1.045218
H   -0.962905   1.398319  -0.348543
H   -2.381845   1.486145   0.699509
H   -1.888449  -0.628346  -1.450293
H   -3.340269  -0.523081  -0.445541

units ang
no_reorient
no_com
symmetry c1
}

set {
basis        aug-cc-pVTZ
scf_type     df
}

energy("mp2", bsse_type="cp")
--------------------------------------------------------------------------

                               Psi4 1.9.1 release
    Molecular point group: c1
  Charge       = 0
  Multiplicity = 1
  Basis Set: AUG-CC-PVTZ
    Blend: AUG-CC-PVTZ
  Basis Set: (AUG-CC-PVTZ AUX)
    Blend: AUG-CC-PVTZ-JKFIT
  @DF-RHF Final Energy:  -154.14566798380710
    Total Energy =                       -154.1456679838071011
 Dipole X            :         96.7257373          -97.0971594           -0.3714221
 Dipole Y            :          2.0553938           -2.3252060           -0.2698122
 Dipole Z            :          3.3406023           -3.8108954           -0.4702931
 Magnitude           :                                                    0.6572128
  Basis Set: (AUG-CC-PVTZ AUX)
    Blend: AUG-CC-PVTZ-RI
	 Reference Energy          =    -154.1456679838071011 [Eh]
	 Singles Energy            =      -0.0000000000000000 [Eh]
	 Same-Spin Energy          =      -0.1481241909071160 [Eh]
	 Opposite-Spin Energy      =      -0.5182327932673629 [Eh]
	 Correlation Energy        =      -0.6663569841744790 [Eh]
	 Total Energy              =    -154.8120249679815856 [Eh]
	 SCS Total Energy          =    -154.8169220660303154 [Eh]
                               Psi4 1.9.1 release
    Molecular point group: c1
  Multiplicity = 1
  Basis Set: AUG-CC-PVTZ
    Blend: AUG-CC-PVTZ
  Basis Set: (AUG-CC-PVTZ AUX)
    Blend: AUG-CC-PVTZ-JKFIT
  @DF-RHF Final Energy:  -154.14557211741686
    Total Energy =                       -154.1455721174168616
  Basis Set: (AUG-CC-PVTZ AUX)
	 Singles Energy            =      -0.0000000000000000 [Eh]
	 Same-Spin Energy          =      -0.1481288725877160 [Eh]
	 Opposite-Spin Energy      =      -0.5182003811825527 [Eh]
	 Correlation Energy        =      -0.6663292537702687 [Eh]
	 Total Energy              =    -154.8119013711871332 [Eh]
	 SCS Total Energy          =    -154.8167888656984985 [Eh]
                               Psi4 1.9.1 release
    Molecular point group: c1

    Geometry (in Bohr), charge = 0, multiplicity = 1:

       Center              X                  Y                   Z               Mass
    ------------   -----------------  -----------------  -----------------  -----------------
         C            2.734647242590     0.954268229655     2.062836376907    12.000000000000
         C            3.090076380896    -0.584671814586    -0.294678222826    12.000000000000
         O            5.493656834389    -0.022334673077    -1.305781855430    15.994914619570
         H            5.745101902916    -1.001842084864    -2.808900251237     1.007825032230
         H            0.892243638766     0.556579146005     2.899372779220     1.007825032230
         H            2.851647745921     2.969816099998     1.631697251109     1.007825032230
         H            4.207152075164     0.514224714355     3.438985964070     1.007825032230
         H            1.585017236358    -0.144919317109    -1.662350498590     1.007825032230
         H            2.918404211029    -2.607544263391     0.149394188574     1.007825032230
         C           -3.832236081052     2.202485247852    -0.533172998215    12.000000000000
         C           -4.275686772556    -0.580735515067    -0.881833137540    12.000000000000
         O           -3.012300922751    -1.871399561493     1.081289950630    15.994914619570
         H           -3.323304489574    -3.649607279109     0.923374986956     1.007825032230
         H           -4.826403988120     3.290134126894    -1.975175761399     1.007825032230
         H           -1.819626734834     2.642439946024    -0.658650812945     1.007825032230
         H           -4.501034723291     2.808407032719     1.321880432293     1.007825032230
         H           -3.568651411895    -1.187401852027    -2.740656571669     1.007825032230
         H           -6.312193595357    -0.988479831431    -0.841950467663     1.007825032230

  Charge       = 0
  Multiplicity = 1
  Basis Set: AUG-CC-PVTZ
    Blend: AUG-CC-PVTZ
  Basis Set: (AUG-CC-PVTZ AUX)
    Blend: AUG-CC-PVTZ-JKFIT

    Orbital Energies [Eh]
    ---------------------

    Doubly Occupied:

       1A    -20.562164     2A    -20.548006     3A    -11.279333
       4A    -11.263235     5A    -11.214597     6A    -11.196461
       7A     -1.369099     8A     -1.354007     9A     -1.019397
      10A     -1.002547    11A     -0.838739    12A     -0.821546
      13A     -0.710633    14A     -0.694949    15A     -0.652625
      16A     -0.634210    17A     -0.581652    18A     -0.564506
      19A     -0.539113    20A     -0.530008    21A     -0.520732
      22A     -0.512897    23A     -0.491992    24A     -0.478724
      25A     -0.445998    26A     -0.430609

  @DF-RHF Final Energy:  -308.28908934896469

   => Energetics <=

    Nuclear Repulsion Energy =            251.2968190803702271
    One-Electron Energy =                -918.6562541057818407
    Two-Electron Energy =                 359.0703456764468910
    Total Energy =                       -308.2890893489646942
 Dipole X            :         -0.9307578            0.0000038           -0.9307540
 Dipole Y            :         -0.7173202            0.0000094           -0.7173107
 Dipole Z            :         -0.6720774           -0.0000019           -0.6720793
 Magnitude           :                                                    1.3537090
  Basis Set: (AUG-CC-PVTZ AUX)
    Blend: AUG-CC-PVTZ-RI
	 Reference Energy          =    -308.2890893489646942 [Eh]
	 Singles Energy            =      -0.0000000000000000 [Eh]
	 Same-Spin Energy          =      -0.2987235045181367 [Eh]
	 Opposite-Spin Energy      =      -1.0388786129068694 [Eh]
	 Correlation Energy        =      -1.3376021174250061 [Eh]
	 Total Energy              =    -309.6266914663896728 [Eh]

	 ================> DF-SCS-MP2 Energies <==================
	-----------------------------------------------------------
	 SCS Same-Spin Scale       =       0.3333333333333333 [-]
	 SCS Opposite-Spin Scale   =       1.2000000000000000 [-]
	 SCS Same-Spin Energy      =      -0.0995745015060455 [Eh]
	 SCS Opposite-Spin Energy  =      -1.2466543354882433 [Eh]
	 SCS Correlation Energy    =      -1.3462288369942890 [Eh]
	 SCS Total Energy          =    -309.6353181859589654 [Eh]
	-----------------------------------------------------------

*** Psi4 exiting successfully. Buy a developer a beer!
