                               Psi4 1.9.1 release

  ==> Input File <==

--------------------------------------------------------------------------
MEMORY 10 GB

molecule dimer {
0 1
C    1.919916   1.158802   0.433176
C    2.555492  -0.111534  -0.056569
O    1.547990  -0.896830  -0.655789
H    1.929343  -1.720488  -0.965149
H    2.659934   1.811678   0.898278
H    1.142518   0.939399   1.168522
H    1.455997   1.696381  -0.396440
H    3.023775  -0.646463   0.782073
H    3.353109   0.119292  -0.777244
--
0 1
C   -1.602636  -0.894208   0.874554
C   -1.614125   0.257630  -0.089116
O   -2.946481   0.465005  -0.509966
H   -2.958921   1.164519  -1.165306
H   -0.583627  -1.100036   1.206452
H   -1.995194  -1.792970   0.394912
H   -2.225105  -0.676357   1.744787
H   -0.952193   0.036233  -0.937217
H   -1.213583   1.159277   0.400096

units ang
no_reorient
no_com
symmetry c1
}

set {
basis        aug-cc-pVTZ
scf_type     df
}

energy("mp2", bsse_type="cp")
--------------------------------------------------------------------------

                               Psi4 1.9.1 release
    Molecular point group: c1
  Charge       = 0
  Multiplicity = 1
  Basis Set: AUG-CC-PVTZ
    Blend: AUG-CC-PVTZ
  Basis Set: (AUG-CC-PVTZ AUX)
    Blend: AUG-CC-PVTZ-JKFIT
  @DF-RHF Final Energy:  -154.14551024686497
    Total Energy =                       -154.1455102468649727
 Dipole X            :        100.3167905          -99.7794991            0.5372914
 Dipole Y            :          2.7928173           -2.4732017            0.3196156
 Dipole Z            :         -4.5180807            4.3021959           -0.2158849
 Magnitude           :                                                    0.6613944
  Basis Set: (AUG-CC-PVTZ AUX)
    Blend: AUG-CC-PVTZ-RI
	 Reference Energy          =    -154.1455102468649727 [Eh]
	 Singles Energy            =      -0.0000000000000000 [Eh]
	 Same-Spin Energy          =      -0.1481342222442412 [Eh]
	 Opposite-Spin Energy      =      -0.5182089706742751 [Eh]
	 Correlation Energy        =      -0.6663431929185163 [Eh]
	 Total Energy              =    -154.8118534397834765 [Eh]
	 SCS Total Energy          =    -154.8167390857555290 [Eh]
                               Psi4 1.9.1 release
    Molecular point group: c1
  Multiplicity = 1
  Basis Set: AUG-CC-PVTZ
    Blend: AUG-CC-PVTZ
  Basis Set: (AUG-CC-PVTZ AUX)
    Blend: AUG-CC-PVTZ-JKFIT
  @DF-RHF Final Energy:  -154.14567336738497
    Total Energy =                       -154.1456733673849726
  Basis Set: (AUG-CC-PVTZ AUX)
	 Singles Energy            =      -0.0000000000000000 [Eh]
	 Same-Spin Energy          =      -0.1481209119041912 [Eh]
	 Opposite-Spin Energy      =      -0.5180927686403141 [Eh]
	 Correlation Energy        =      -0.6662136805445054 [Eh]
	 Total Energy              =    -154.8118870479294742 [Eh]
	 SCS Total Energy          =    -154.8167583270547425 [Eh]
                               Psi4 1.9.1 release
    Molecular point group: c1

    Geometry (in Bohr), charge = 0, multiplicity = 1:

       Center              X                  Y                   Z               Mass
    ------------   -----------------  -----------------  -----------------  -----------------
         C            3.628115423884     2.189818413633     0.818584004121    12.000000000000
         C            4.829179995798    -0.210768713677    -0.106899917191    12.000000000000
         O            2.925277144947    -1.694763081094    -1.239261606088    15.994914619570
         H            3.645929872069    -3.251251122137    -1.823867280259     1.007825032230
         H            5.026546771794     3.423575247517     1.697499404524     1.007825032230
         H            2.159046113406     1.775206832529     2.208186551572     1.007825032230
         H            2.751435569488     3.205695494430    -0.749163025177     1.007825032230
         H            5.714106615006    -1.221638020242     1.477903780115     1.007825032230
         H            6.336457678808     0.225429208958    -1.468778292655     1.007825032230
         C           -3.028543118799    -1.689808219193     1.652667541924    12.000000000000
         C           -3.050254182255     0.486850141702    -0.168404833396    12.000000000000
         O           -5.568042123865     0.878732096969    -0.963696073295    15.994914619570
         H           -5.591550316866     2.200621977892    -2.202109192353     1.007825032230
         H           -1.102895189423    -2.078766768144     2.279863863511     1.007825032230
         H           -3.770370227157    -3.388222251162     0.746275523657     1.007825032230
         H           -4.204839050387    -1.278129493036     3.297169577259     1.007825032230
         H           -1.799383988578     0.068470446704    -1.771083450123     1.007825032230
         H           -2.293339500511     2.190716033542     0.756071863891     1.007825032230

  Charge       = 0
  Multiplicity = 1
  Basis Set: AUG-CC-PVTZ
    Blend: AUG-CC-PVTZ
  Basis Set: (AUG-CC-PVTZ AUX)
    Blend: AUG-CC-PVTZ-JKFIT

    Orbital Energies [Eh]
    ---------------------

    Doubly Occupied:

       1A    -20.562282     2A    -20.543972     3A    -11.279577
       4A    -11.257313     5A    -11.216820     6A    -11.196684
       7A     -1.369372     8A     -1.349610     9A     -1.020604
      10A     -1.000210    11A     -0.840124    12A     -0.818549
      13A     -0.711345    14A     -0.690127    15A     -0.652360
      16A     -0.631799    17A     -0.581374    18A     -0.561873
      19A     -0.540105    20A     -0.531015    21A     -0.520186
      22A     -0.511272    23A     -0.496381    24A     -0.473627
      25A     -0.446460    26A     -0.425866

  @DF-RHF Final Energy:  -308.28952989422248

   => Energetics <=

    Nuclear Repulsion Energy =            249.4869198270414188
    One-Electron Energy =                -915.0950864033977723
    Two-Electron Energy =                 357.3186366821338424
    Total Energy =                       -308.2895298942224827
 Dipole X            :          1.3112166            0.0000132            1.3112298
 Dipole Y            :          0.1269852            0.0000094            0.1269946
 Dipole Z            :         -0.1967779           -0.0000113           -0.1967893
 Magnitude           :                                                    1.3319825
  Basis Set: (AUG-CC-PVTZ AUX)
    Blend: AUG-CC-PVTZ-RI
	 Reference Energy          =    -308.2895298942224827 [Eh]
	 Singles Energy            =      -0.0000000000000000 [Eh]
	 Same-Spin Energy          =      -0.2983911040756869 [Eh]
	 Opposite-Spin Energy      =      -1.0384245546767450 [Eh]
	 Correlation Energy        =      -1.3368156587524318 [Eh]
	 Total Energy              =    -309.6263455529748967 [Eh]

	 ================> DF-SCS-MP2 Energies <==================
	-----------------------------------------------------------
	 SCS Same-Spin Scale       =       0.3333333333333333 [-]
	 SCS Opposite-Spin Scale   =       1.2000000000000000 [-]
	 SCS Same-Spin Energy      =      -0.0994637013585623 [Eh]
	 SCS Opposite-Spin Energy  =      -1.2461094656120939 [Eh]
	 SCS Correlation Energy    =      -1.3455731669706561 [Eh]
	 SCS Total Energy          =    -309.6351030611931492 [Eh]
	-----------------------------------------------------------

*** Psi4 exiting successfully. Buy a developer a beer!
