                               Psi4 1.9.1 release

  ==> Input File <==

--------------------------------------------------------------------------
MEMORY 10 GB

molecule dimer {
0 1
C   -2.657704   0.913790  -0.176094
C   -1.885150  -0.312888  -0.589726
O   -1.497358  -1.104285   0.511985
H   -2.286624  -1.361853   0.995038
H   -2.918253   1.526409  -1.041526
H   -2.069254   1.522685   0.513667
H   -3.589525   0.637946   0.326692
H   -0.955578  -0.026085  -1.090366
H   -2.462428  -0.905448  -1.313311
--
0 1
C    1.215389   0.803162   0.677397
C    1.914559  -0.394247   0.085927
O    3.070109  -0.045258  -0.644100
H    3.655655   0.444291  -0.061235
H    0.297753   0.495728   1.184283
H    0.961446   1.523865  -0.104402
H    1.855335   1.311142   1.405635
H    1.256294  -0.909556  -0.618418
H    2.150606  -1.121693   0.875837

units ang
no_reorient
no_com
symmetry c1
}

set {
basis        aug-cc-pVTZ
scf_type     df
}

energy("mp2", bsse_type="cp")
--------------------------------------------------------------------------

                               Psi4 1.9.1 release
    Molecular point group: c1
  Charge       = 0
  Multiplicity = 1
  Basis Set: AUG-CC-PVTZ
    Blend: AUG-CC-PVTZ
  Basis Set: (AUG-CC-PVTZ AUX)
    Blend: AUG-CC-PVTZ-JKFIT
  @DF-RHF Final Energy:  -154.14504880693687
    Total Energy =                       -154.1450488069368703
 Dipole X            :       -101.3112827          101.1336995           -0.1775832
 Dipole Y            :         -7.0729340            7.2474833            0.1745493
 Dipole Z            :         -3.3174905            3.9851376            0.6676471
 Magnitude           :                                                    0.7125699
  Basis Set: (AUG-CC-PVTZ AUX)
    Blend: AUG-CC-PVTZ-RI
	 Reference Energy          =    -154.1450488069368703 [Eh]
	 Singles Energy            =      -0.0000000000000000 [Eh]
	 Same-Spin Energy          =      -0.1481979292108622 [Eh]
	 Opposite-Spin Energy      =      -0.5182979697697826 [Eh]
	 Correlation Energy        =      -0.6664958989806448 [Eh]
	 Total Energy              =    -154.8115447059175267 [Eh]
	 SCS Total Energy          =    -154.8164056803975654 [Eh]
                               Psi4 1.9.1 release
    Molecular point group: c1
  Multiplicity = 1
  Basis Set: AUG-CC-PVTZ
    Blend: AUG-CC-PVTZ
  Basis Set: (AUG-CC-PVTZ AUX)
    Blend: AUG-CC-PVTZ-JKFIT
  @DF-RHF Final Energy:  -154.14516949099496
    Total Energy =                       -154.1451694909949595
  Basis Set: (AUG-CC-PVTZ AUX)
	 Singles Energy            =      -0.0000000000000000 [Eh]
	 Same-Spin Energy          =      -0.1482028452689893 [Eh]
	 Opposite-Spin Energy      =      -0.5183940252720514 [Eh]
	 Correlation Energy        =      -0.6665968705410407 [Eh]
	 Total Energy              =    -154.8117663615360016 [Eh]
	 SCS Total Energy          =    -154.8166432697444179 [Eh]
                               Psi4 1.9.1 release
    Molecular point group: c1

    Geometry (in Bohr), charge = 0, multiplicity = 1:

       Center              X                  Y                   Z               Mass
    ------------   -----------------  -----------------  -----------------  -----------------
         C           -5.022332682534     1.726812836182    -0.332769432336    12.000000000000
         C           -3.562417205407    -0.591272627942    -1.114420629062    12.000000000000
         O           -2.829596531763    -2.086796214451     0.967511430343    15.994914619570
         H           -4.321093111899    -2.573529193133     1.880349304423     1.007825032230
         H           -5.514698934796     2.884494965434    -1.968198892544     1.007825032230
         H           -3.910323344008     2.877457625343     0.970689949686     1.007825032230
         H           -6.783219170484     1.205543222831     0.617358407378     1.007825032230
         H           -1.805780711513    -0.049293505983    -2.060493116511     1.007825032230
         H           -4.653314523659    -1.711048740844    -2.481798107551     1.007825032230
         C            2.296752345894     1.517756214375     1.280094808207    12.000000000000
         C            3.617992161030    -0.745018855783     0.162378496782    12.000000000000
         O            5.801665185303    -0.085525224986    -1.217172597407    15.994914619570
         H            6.908186759161     0.839588310006    -0.115717379292     1.007825032230
         H            0.562671623033     0.936790152721     2.237970525036     1.007825032230
         H            1.816869624417     2.879687502171    -0.197291186950     1.007825032230
         H            3.506075020976     2.477699291585     2.656265182358     1.007825032230
         H            2.374051593056    -1.718811735767    -1.168640651053     1.007825032230
         H            4.064056343766    -2.119692566843     1.655092060543     1.007825032230

  Charge       = 0
  Multiplicity = 1
  Basis Set: AUG-CC-PVTZ
    Blend: AUG-CC-PVTZ
  Basis Set: (AUG-CC-PVTZ AUX)
    Blend: AUG-CC-PVTZ-JKFIT

    Orbital Energies [Eh]
    ---------------------

    Doubly Occupied:

       1A    -20.561309     2A    -20.546978     3A    -11.277255
       4A    -11.261880     5A    -11.221544     6A    -11.205741
       7A     -1.368465     8A     -1.353345     9A     -1.018735
      10A     -1.003430    11A     -0.853055    12A     -0.837515
      13A     -0.694881    14A     -0.677303    15A     -0.633349
      16A     -0.618269    17A     -0.610661    18A     -0.601576
      19A     -0.550478    20A     -0.533902    21A     -0.530374
      22A     -0.514617    23A     -0.485146    24A     -0.470352
      25A     -0.448253    26A     -0.432715

  @DF-RHF Final Energy:  -308.28845471063067

   => Energetics <=

    Nuclear Repulsion Energy =            249.5464351400219130
    One-Electron Energy =                -915.0475228462256609
    Two-Electron Energy =                 357.2126329955730739
    Total Energy =                       -308.2884547106306741
 Dipole X            :         -0.9308576           -0.0000019           -0.9308595
 Dipole Y            :          0.3339810           -0.0000208            0.3339602
 Dipole Z            :          0.5151228           -0.0000038            0.5151190
 Magnitude           :                                                    1.1150678
  Basis Set: (AUG-CC-PVTZ AUX)
    Blend: AUG-CC-PVTZ-RI
	 Reference Energy          =    -308.2884547106306741 [Eh]
	 Singles Energy            =      -0.0000000000000000 [Eh]
	 Same-Spin Energy          =      -0.2989395351172120 [Eh]
	 Opposite-Spin Energy      =      -1.0391576440664196 [Eh]
	 Correlation Energy        =      -1.3380971791836316 [Eh]
	 Total Energy              =    -309.6265518898143227 [Eh]

	 ================> DF-SCS-MP2 Energies <==================
	-----------------------------------------------------------
	 SCS Same-Spin Scale       =       0.3333333333333333 [-]
	 SCS Opposite-Spin Scale   =       1.2000000000000000 [-]
	 SCS Same-Spin Energy      =      -0.0996465117057373 [Eh]
	 SCS Opposite-Spin Energy  =      -1.2469891728797036 [Eh]
	 SCS Correlation Energy    =      -1.3466356845854408 [Eh]
	 SCS Total Energy          =    -309.6350903952161389 [Eh]
	-----------------------------------------------------------

*** Psi4 exiting successfully. Buy a developer a beer!
