                               Psi4 1.9.1 release

  ==> Input File <==

--------------------------------------------------------------------------
MEMORY 10 GB

molecule dimer {
0 1
C   -2.017771   0.980042   0.536010
C   -1.935956  -0.093822  -0.517098
O   -1.142113  -1.192056  -0.108857
H   -1.491699  -1.541411   0.715301
H   -2.615045   1.824748   0.187717
H   -1.020826   1.345641   0.793407
H   -2.485342   0.598282   1.448301
H   -1.462803   0.290103  -1.424920
H   -2.939158  -0.435743  -0.803051
--
0 1
C    1.674370   1.185617  -0.536867
C    1.878173   0.131763   0.526479
O    1.728993  -1.168601   0.027887
H    0.790317  -1.289550  -0.178936
H    1.807468   2.192948  -0.133917
H    0.664837   1.120067  -0.955195
H    2.381254   1.042797  -1.356350
H    1.191706   0.314903   1.369907
H    2.891355   0.200876   0.934345

units ang
no_reorient
no_com
symmetry c1
}

set {
basis        aug-cc-pVTZ
scf_type     df
}

energy("mp2", bsse_type="cp")
--------------------------------------------------------------------------

                               Psi4 1.9.1 release
    Molecular point group: c1
  Charge       = 0
  Multiplicity = 1
  Basis Set: AUG-CC-PVTZ
    Blend: AUG-CC-PVTZ
  Basis Set: (AUG-CC-PVTZ AUX)
    Blend: AUG-CC-PVTZ-JKFIT
  @DF-RHF Final Energy:  -154.14447632262068
    Total Energy =                       -154.1444763226206760
 Dipole X            :        -85.2906706           84.7998328           -0.4908378
 Dipole Y            :         -3.5473320            4.0393142            0.4919822
 Dipole Z            :          0.3631553           -0.3011808            0.0619745
 Magnitude           :                                                    0.6977170
  Basis Set: (AUG-CC-PVTZ AUX)
    Blend: AUG-CC-PVTZ-RI
	 Reference Energy          =    -154.1444763226206760 [Eh]
	 Singles Energy            =      -0.0000000000000000 [Eh]
	 Same-Spin Energy          =      -0.1482962700396069 [Eh]
	 Opposite-Spin Energy      =      -0.5189303001018665 [Eh]
	 Correlation Energy        =      -0.6672265701414734 [Eh]
	 Total Energy              =    -154.8117028927621561 [Eh]
	 SCS Total Energy          =    -154.8166247727561142 [Eh]
                               Psi4 1.9.1 release
    Molecular point group: c1
  Multiplicity = 1
  Basis Set: AUG-CC-PVTZ
    Blend: AUG-CC-PVTZ
  Basis Set: (AUG-CC-PVTZ AUX)
    Blend: AUG-CC-PVTZ-JKFIT
  @DF-RHF Final Energy:  -154.14517433276708
    Total Energy =                       -154.1451743327670840
  Basis Set: (AUG-CC-PVTZ AUX)
	 Singles Energy            =      -0.0000000000000000 [Eh]
	 Same-Spin Energy          =      -0.1482515431020946 [Eh]
	 Opposite-Spin Energy      =      -0.5188425852059548 [Eh]
	 Correlation Energy        =      -0.6670941283080494 [Eh]
	 Total Energy              =    -154.8122684610751207 [Eh]
	 SCS Total Energy          =    -154.8172026160482631 [Eh]
                               Psi4 1.9.1 release
    Molecular point group: c1

    Geometry (in Bohr), charge = 0, multiplicity = 1:

       Center              X                  Y                   Z               Mass
    ------------   -----------------  -----------------  -----------------  -----------------
         C           -3.813034573891     1.852010971446     1.012912100507    12.000000000000
         C           -3.658426630937    -0.177297884543    -0.977173600022    12.000000000000
         O           -2.158280774325    -2.252659366209    -0.205709916839    15.994914619570
         H           -2.818902571619    -2.912844636768     1.351722987266     1.007825032230
         H           -4.941718855748     3.448273967977     0.354733719093     1.007825032230
         H           -1.929081561747     2.542892953187     1.499321936021     1.007825032230
         H           -4.696615708098     1.130589125791     2.736892237227     1.007825032230
         H           -2.764297045498     0.548215218174    -2.692708550687     1.007825032230
         H           -5.554203659448    -0.823434931085    -1.517546454775     1.007825032230
         C            3.164100732683     2.240491419687    -1.014531595796    12.000000000000
         C            3.549232586230     0.248995983469     0.994901120805    12.000000000000
         O            3.267323242834    -2.208335839936     0.052698792461    15.994914619570
         H            1.493482682293    -2.436896325084    -0.338140033985     1.007825032230
         H            3.415619500529     4.144071127370    -0.253066453543     1.007825032230
         H            1.256359848071     2.116619872163    -1.805056946407     1.007825032230
         H            4.499917895151     1.970600734449    -2.563130030265     1.007825032230
         H            2.251997962065     0.595080426085     2.588749047348     1.007825032230
         H            5.463869081473     0.379600625177     1.765656156691     1.007825032230

  Charge       = 0
  Multiplicity = 1
  Basis Set: AUG-CC-PVTZ
    Blend: AUG-CC-PVTZ
  Basis Set: (AUG-CC-PVTZ AUX)
    Blend: AUG-CC-PVTZ-JKFIT

    Orbital Energies [Eh]
    ---------------------

    Doubly Occupied:

       1A    -20.578558     2A    -20.526825     3A    -11.289652
       4A    -11.258634     5A    -11.230039     6A    -11.206274
       7A     -1.385647     8A     -1.338586     9A     -1.030388
      10A     -0.999294    11A     -0.865644    12A     -0.830882
      13A     -0.711852    14A     -0.674973    15A     -0.642448
      16A     -0.631118    17A     -0.609982    18A     -0.590737
      19A     -0.561507    20A     -0.541408    21A     -0.529875
      22A     -0.512650    23A     -0.498892    24A     -0.465707
      25A     -0.457931    26A     -0.421361

  @DF-RHF Final Energy:  -308.29239265689296

   => Energetics <=

    Nuclear Repulsion Energy =            260.5203184521502635
    One-Electron Energy =                -936.8436905423554890
    Two-Electron Energy =                 368.0309794333122682
    Total Energy =                       -308.2923926568929573
 Dipole X            :         -1.3122282            0.0000000           -1.3122282
 Dipole Y            :          0.7393875            0.0000094            0.7393970
 Dipole Z            :          0.3736521           -0.0000132            0.3736388
 Magnitude           :                                                    1.5518559
  Basis Set: (AUG-CC-PVTZ AUX)
    Blend: AUG-CC-PVTZ-RI
	 Reference Energy          =    -308.2923926568929573 [Eh]
	 Singles Energy            =      -0.0000000000000000 [Eh]
	 Same-Spin Energy          =      -0.3002673148380267 [Eh]
	 Opposite-Spin Energy      =      -1.0407574798273980 [Eh]
	 Correlation Energy        =      -1.3410247946654246 [Eh]
	 Total Energy              =    -309.6334174515583868 [Eh]

	 ================> DF-SCS-MP2 Energies <==================
	-----------------------------------------------------------
	 SCS Same-Spin Scale       =       0.3333333333333333 [-]
	 SCS Opposite-Spin Scale   =       1.2000000000000000 [-]
	 SCS Same-Spin Energy      =      -0.1000891049460089 [Eh]
	 SCS Opposite-Spin Energy  =      -1.2489089757928775 [Eh]
	 SCS Correlation Energy    =      -1.3489980807388864 [Eh]
	 SCS Total Energy          =    -309.6413907376318662 [Eh]
	-----------------------------------------------------------

*** Psi4 exiting successfully. Buy a developer a beer!
