                               Psi4 1.9.1 release

  ==> Input File <==

--------------------------------------------------------------------------
MEMORY 10 GB

molecule dimer {
0 1
C   -2.998340   0.550351   0.040756
C   -1.535899   0.271909  -0.173320
O   -1.275460  -1.053816   0.198153
H   -0.364241  -1.261540  -0.052863
H   -3.247098   1.580018  -0.222343
H   -3.264821   0.385862   1.086613
H   -3.605355  -0.121481  -0.568933
H   -0.933239   0.978643   0.423478
H   -1.268196   0.449168  -1.227401
--
0 1
C    2.149700   1.251481  -0.129031
C    2.027911  -0.099264   0.526088
O    1.515186  -1.081555  -0.355977
H    2.038153  -1.088784  -1.161518
H    2.510688   1.998978   0.579727
H    1.181988   1.580481  -0.514378
H    2.856407   1.220053  -0.963699
H    1.323546  -0.063289   1.361837
H    2.994125  -0.422006   0.935112

units ang
no_reorient
no_com
symmetry c1
}

set {
basis        aug-cc-pVTZ
scf_type     df
}

energy("mp2", bsse_type="cp")
--------------------------------------------------------------------------

                               Psi4 1.9.1 release
    Molecular point group: c1
  Charge       = 0
  Multiplicity = 1
  Basis Set: AUG-CC-PVTZ
    Blend: AUG-CC-PVTZ
  Basis Set: (AUG-CC-PVTZ AUX)
    Blend: AUG-CC-PVTZ-JKFIT
  @DF-RHF Final Energy:  -154.14510152454335
    Total Energy =                       -154.1451015245433496
 Dipole X            :        -94.1310215           94.6602763            0.5292549
 Dipole Y            :         -2.3352254            2.8086905            0.4734651
 Dipole Z            :          0.3226499           -0.4316002           -0.1089503
 Magnitude           :                                                    0.7184359
  Basis Set: (AUG-CC-PVTZ AUX)
    Blend: AUG-CC-PVTZ-RI
	 Reference Energy          =    -154.1451015245433496 [Eh]
	 Singles Energy            =      -0.0000000000000000 [Eh]
	 Same-Spin Energy          =      -0.1482330290199259 [Eh]
	 Opposite-Spin Energy      =      -0.5186522941871162 [Eh]
	 Correlation Energy        =      -0.6668853232070422 [Eh]
	 Total Energy              =    -154.8119868477504042 [Eh]
	 SCS Total Energy          =    -154.8168952872412092 [Eh]
                               Psi4 1.9.1 release
    Molecular point group: c1
  Multiplicity = 1
  Basis Set: AUG-CC-PVTZ
    Blend: AUG-CC-PVTZ
  Basis Set: (AUG-CC-PVTZ AUX)
    Blend: AUG-CC-PVTZ-JKFIT
  @DF-RHF Final Energy:  -154.14497483853484
    Total Energy =                       -154.1449748385348357
  Basis Set: (AUG-CC-PVTZ AUX)
	 Singles Energy            =      -0.0000000000000000 [Eh]
	 Same-Spin Energy          =      -0.1482423237803828 [Eh]
	 Opposite-Spin Energy      =      -0.5187227543723461 [Eh]
	 Correlation Energy        =      -0.6669650781527288 [Eh]
	 Total Energy              =    -154.8119399166875780 [Eh]
	 SCS Total Energy          =    -154.8168562517084581 [Eh]
                               Psi4 1.9.1 release
    Molecular point group: c1

    Geometry (in Bohr), charge = 0, multiplicity = 1:

       Center              X                  Y                   Z               Mass
    ------------   -----------------  -----------------  -----------------  -----------------
         C           -5.666041431005     1.040012662872     0.077017677969    12.000000000000
         C           -2.902428466365     0.513833541047    -0.327527332064    12.000000000000
         O           -2.410270083976    -1.991423626625     0.374454900938    15.994914619570
         H           -0.688315733663    -2.383965096310    -0.099896592170     1.007825032230
         H           -6.136125922522     2.985801293294    -0.420167375913     1.007825032230
         H           -6.169617538643     0.729173502221     2.053400974362     1.007825032230
         H           -6.813133535050    -0.229565819447    -1.075127553735     1.007825032230
         H           -1.763566119596     1.849367244596     0.800257440157     1.007825032230
         H           -2.396543113401     0.848804504320    -2.319451736113     1.007825032230
         C            4.062344251897     2.364956341214    -0.243833251694    12.000000000000
         C            3.832196396803    -0.187581774117     0.994162237890    12.000000000000
         O            2.863286569128    -2.043842739620    -0.672699036962    15.994914619570
         H            3.851550971780    -2.057503569780    -2.194950909790     1.007825032230
         H            4.744512706473     3.777520950815     1.095525257533     1.007825032230
         H            2.233633603578     2.986676236490    -0.972033544961     1.007825032230
         H            5.397826932841     2.305566028543    -1.821127177378     1.007825032230
         H            2.501139454445    -0.119598876754     2.573498957515     1.007825032230
         H            5.658076235386    -0.797475763300     1.767105576629     1.007825032230

  Charge       = 0
  Multiplicity = 1
  Basis Set: AUG-CC-PVTZ
    Blend: AUG-CC-PVTZ
  Basis Set: (AUG-CC-PVTZ AUX)
    Blend: AUG-CC-PVTZ-JKFIT

    Orbital Energies [Eh]
    ---------------------

    Doubly Occupied:

       1A    -20.577592     2A    -20.527783     3A    -11.287219
       4A    -11.259724     5A    -11.229098     6A    -11.200449
       7A     -1.384530     8A     -1.339251     9A     -1.028539
      10A     -0.999867    11A     -0.864378    12A     -0.818839
      13A     -0.717394    14A     -0.677703    15A     -0.640650
      16A     -0.633359    17A     -0.627575    18A     -0.564613
      19A     -0.554630    20A     -0.539485    21A     -0.521804
      22A     -0.510662    23A     -0.498407    24A     -0.469580
      25A     -0.461661    26A     -0.418643

  @DF-RHF Final Energy:  -308.29349023425743

   => Energetics <=

    Nuclear Repulsion Energy =            256.0496097898237622
    One-Electron Energy =                -927.9793234427130528
    Two-Electron Energy =                 363.6362234186318574
    Total Energy =                       -308.2934902342574333
 Dipole X            :          1.2237520           -0.0000057            1.2237463
 Dipole Y            :          0.8268247           -0.0000057            0.8268191
 Dipole Z            :         -0.4154689           -0.0000038           -0.4154726
 Magnitude           :                                                    1.5342107
  Basis Set: (AUG-CC-PVTZ AUX)
    Blend: AUG-CC-PVTZ-RI
	 Reference Energy          =    -308.2934902342574333 [Eh]
	 Singles Energy            =      -0.0000000000000000 [Eh]
	 Same-Spin Energy          =      -0.2997569902730353 [Eh]
	 Opposite-Spin Energy      =      -1.0398800153816450 [Eh]
	 Correlation Energy        =      -1.3396370056546802 [Eh]
	 Total Energy              =    -309.6331272399121417 [Eh]

	 ================> DF-SCS-MP2 Energies <==================
	-----------------------------------------------------------
	 SCS Same-Spin Scale       =       0.3333333333333333 [-]
	 SCS Opposite-Spin Scale   =       1.2000000000000000 [-]
	 SCS Same-Spin Energy      =      -0.0999189967576784 [Eh]
	 SCS Opposite-Spin Energy  =      -1.2478560184579739 [Eh]
	 SCS Correlation Energy    =      -1.3477750152156522 [Eh]
	 SCS Total Energy          =    -309.6412652494730651 [Eh]
	-----------------------------------------------------------

*** Psi4 exiting successfully. Buy a developer a beer!
