                               Psi4 1.9.1 release

  ==> Input File <==

--------------------------------------------------------------------------
MEMORY 10 GB

molecule dimer {
0 1
C    2.138748   0.712657  -0.902723
C    2.081145  -0.614620  -0.189170
O    1.553281  -0.507187   1.113929
H    2.099425   0.104814   1.613925
H    2.527831   0.599419  -1.916656
H    2.793224   1.411820  -0.373605
H    1.144337   1.161585  -0.962749
H    3.075245  -1.083759  -0.172237
H    1.418829  -1.304382  -0.720240
--
0 1
C   -1.559145   1.135554   0.539781
C   -1.531850  -0.244422  -0.052686
O   -2.839384  -0.565039  -0.476687
H   -2.848246  -1.465971  -0.804181
H   -0.566892   1.411612   0.900343
H   -2.256725   1.175374   1.378429
H   -1.882873   1.867786  -0.202973
H   -1.160488  -0.962393   0.690967
H   -0.828227  -0.273113  -0.900172

units ang
no_reorient
no_com
symmetry c1
}

set {
basis        aug-cc-pVTZ
scf_type     df
}

energy("mp2", bsse_type="cp")
--------------------------------------------------------------------------

                               Psi4 1.9.1 release
    Molecular point group: c1
  Charge       = 0
  Multiplicity = 1
  Basis Set: AUG-CC-PVTZ
    Blend: AUG-CC-PVTZ
  Basis Set: (AUG-CC-PVTZ AUX)
    Blend: AUG-CC-PVTZ-JKFIT
  @DF-RHF Final Energy:  -154.14552695743185
    Total Energy =                       -154.1455269574318550
 Dipole X            :         96.5322499          -96.0065777            0.5256722
 Dipole Y            :         -5.2734704            4.8750682           -0.3984022
 Dipole Z            :         -0.3368673            0.3240635           -0.0128038
 Magnitude           :                                                    0.6597117
  Basis Set: (AUG-CC-PVTZ AUX)
    Blend: AUG-CC-PVTZ-RI
	 Reference Energy          =    -154.1455269574318550 [Eh]
	 Singles Energy            =      -0.0000000000000000 [Eh]
	 Same-Spin Energy          =      -0.1481444985457456 [Eh]
	 Opposite-Spin Energy      =      -0.5183264509657927 [Eh]
	 Correlation Energy        =      -0.6664709495115383 [Eh]
	 Total Energy              =    -154.8119979069433896 [Eh]
	 SCS Total Energy          =    -154.8169001981060546 [Eh]
                               Psi4 1.9.1 release
    Molecular point group: c1
  Multiplicity = 1
  Basis Set: AUG-CC-PVTZ
    Blend: AUG-CC-PVTZ
  Basis Set: (AUG-CC-PVTZ AUX)
    Blend: AUG-CC-PVTZ-JKFIT
  @DF-RHF Final Energy:  -154.14517150148868
    Total Energy =                       -154.1451715014886759
  Basis Set: (AUG-CC-PVTZ AUX)
	 Singles Energy            =      -0.0000000000000000 [Eh]
	 Same-Spin Energy          =      -0.1482036094579292 [Eh]
	 Opposite-Spin Energy      =      -0.5184482081252213 [Eh]
	 Correlation Energy        =      -0.6666518175831505 [Eh]
	 Total Energy              =    -154.8118233190718342 [Eh]
	 SCS Total Energy          =    -154.8167105543915909 [Eh]
                               Psi4 1.9.1 release
    Molecular point group: c1

    Geometry (in Bohr), charge = 0, multiplicity = 1:

       Center              X                  Y                   Z               Mass
    ------------   -----------------  -----------------  -----------------  -----------------
         C            4.041647971371     1.346726551390    -1.705899237152    12.000000000000
         C            3.932794077366    -1.161463471229    -0.357479491153    12.000000000000
         O            2.935275685877    -0.958444524393     2.105020733205    15.994914619570
         H            3.967338270939     0.198069754114     3.049876237030     1.007825032230
         H            4.776908281442     1.132737744396    -3.621954916715     1.007825032230
         H            5.278428367056     2.667953138444    -0.706011129102     1.007825032230
         H            2.162483525228     2.195077521440    -1.819331937558     1.007825032230
         H            5.811370818684    -2.048007696000    -0.325480758670     1.007825032230
         H            2.681198228857    -2.464924742977    -1.361056344600     1.007825032230
         C           -2.946357039877     2.145886060668     1.020038257726    12.000000000000
         C           -2.894776965283    -0.461890639037    -0.099562110646    12.000000000000
         O           -5.365658125007    -1.067768960203    -0.900807877566    15.994914619570
         H           -5.382404877931    -2.770283697864    -1.519681845297     1.007825032230
         H           -1.071270622713     2.667560075410     1.701401688973     1.007825032230
         H           -4.264592190474     2.221134954984     2.604853293389     1.007825032230
         H           -3.558114299019     3.529604000964    -0.383563380863     1.007825032230
         H           -2.193004491880    -1.818659195058     1.305738391729     1.007825032230
         H           -1.565122199710    -0.516108771302    -1.701078545806     1.007825032230

  Charge       = 0
  Multiplicity = 1
  Basis Set: AUG-CC-PVTZ
    Blend: AUG-CC-PVTZ
  Basis Set: (AUG-CC-PVTZ AUX)
    Blend: AUG-CC-PVTZ-JKFIT

    Orbital Energies [Eh]
    ---------------------

    Doubly Occupied:

       1A    -20.561917     2A    -20.547574     3A    -11.279267
       4A    -11.262323     5A    -11.222547     6A    -11.201122
       7A     -1.369297     8A     -1.353680     9A     -1.020061
      10A     -1.004524    11A     -0.854417    12A     -0.823305
      13A     -0.701155    14A     -0.688413    15A     -0.636700
      16A     -0.631898    17A     -0.616900    18A     -0.565603
      19A     -0.550711    20A     -0.532906    21A     -0.523499
      22A     -0.515728    23A     -0.486711    24A     -0.479072
      25A     -0.448895    26A     -0.430019

  @DF-RHF Final Energy:  -308.28849657233150

   => Energetics <=

    Nuclear Repulsion Energy =            251.8234718119583420
    One-Electron Energy =                -919.6074478238095935
    Two-Electron Energy =                 359.4954794395197268
    Total Energy =                       -308.2884965723314963
 Dipole X            :          1.1608576            0.0000076            1.1608651
 Dipole Y            :         -0.0738030           -0.0000038           -0.0738067
 Dipole Z            :         -0.2402366           -0.0000019           -0.2402385
 Magnitude           :                                                    1.1877583
  Basis Set: (AUG-CC-PVTZ AUX)
    Blend: AUG-CC-PVTZ-RI
	 Reference Energy          =    -308.2884965723314963 [Eh]
	 Singles Energy            =      -0.0000000000000000 [Eh]
	 Same-Spin Energy          =      -0.2988438573008838 [Eh]
	 Opposite-Spin Energy      =      -1.0392565251540415 [Eh]
	 Correlation Energy        =      -1.3381003824549254 [Eh]
	 Total Energy              =    -309.6265969547864074 [Eh]

	 ================> DF-SCS-MP2 Energies <==================
	-----------------------------------------------------------
	 SCS Same-Spin Scale       =       0.3333333333333333 [-]
	 SCS Opposite-Spin Scale   =       1.2000000000000000 [-]
	 SCS Same-Spin Energy      =      -0.0996146191002946 [Eh]
	 SCS Opposite-Spin Energy  =      -1.2471078301848497 [Eh]
	 SCS Correlation Energy    =      -1.3467224492851444 [Eh]
	 SCS Total Energy          =    -309.6352190216166491 [Eh]
	-----------------------------------------------------------

*** Psi4 exiting successfully. Buy a developer a beer!
