                               Psi4 1.9.1 release

  ==> Input File <==

--------------------------------------------------------------------------
MEMORY 10 GB

molecule dimer {
0 1
C    1.964053   1.241757  -0.148399
C    2.395908  -0.160787   0.175024
O    1.509715  -1.051482  -0.469393
H    1.789609  -1.952525  -0.297639
H    2.642125   1.969651   0.299603
H    0.957322   1.432443   0.229612
H    1.955326   1.396133  -1.229161
H    2.384615  -0.316654   1.264113
H    3.428691  -0.325209  -0.163468
--
0 1
C   -1.347298  -0.112224   1.186486
C   -1.679387  -0.223148  -0.274172
O   -2.961933   0.333397  -0.473531
H   -3.175255   0.293214  -1.407286
H   -0.358311  -0.531909   1.379124
H   -2.082268  -0.648007   1.790390
H   -1.353725   0.933819   1.501749
H   -1.651432  -1.277524  -0.585129
H   -0.918604   0.297665  -0.872141

units ang
no_reorient
no_com
symmetry c1
}

set {
basis        aug-cc-pVTZ
scf_type     df
}

energy("mp2", bsse_type="cp")
--------------------------------------------------------------------------

                               Psi4 1.9.1 release
    Molecular point group: c1
  Charge       = 0
  Multiplicity = 1
  Basis Set: AUG-CC-PVTZ
    Blend: AUG-CC-PVTZ
  Basis Set: (AUG-CC-PVTZ AUX)
    Blend: AUG-CC-PVTZ-JKFIT
  @DF-RHF Final Energy:  -154.14553339683056
    Total Energy =                       -154.1455333968305581
 Dipole X            :         97.5216279          -97.1227936            0.3988344
 Dipole Y            :          0.2766133           -0.5249621           -0.2483489
 Dipole Z            :         -7.0649638            6.5995718           -0.4653920
 Magnitude           :                                                    0.6613137
  Basis Set: (AUG-CC-PVTZ AUX)
    Blend: AUG-CC-PVTZ-RI
	 Reference Energy          =    -154.1455333968305581 [Eh]
	 Singles Energy            =      -0.0000000000000000 [Eh]
	 Same-Spin Energy          =      -0.1481427487042007 [Eh]
	 Opposite-Spin Energy      =      -0.5182469611330962 [Eh]
	 Correlation Energy        =      -0.6663897098372968 [Eh]
	 Total Energy              =    -154.8119231066678481 [Eh]
	 SCS Total Energy          =    -154.8168106664249990 [Eh]
                               Psi4 1.9.1 release
    Molecular point group: c1
  Multiplicity = 1
  Basis Set: AUG-CC-PVTZ
    Blend: AUG-CC-PVTZ
  Basis Set: (AUG-CC-PVTZ AUX)
    Blend: AUG-CC-PVTZ-JKFIT
  @DF-RHF Final Energy:  -154.14566403957465
    Total Energy =                       -154.1456640395746547
  Basis Set: (AUG-CC-PVTZ AUX)
	 Singles Energy            =      -0.0000000000000000 [Eh]
	 Same-Spin Energy          =      -0.1481331739118174 [Eh]
	 Opposite-Spin Energy      =      -0.5184000886913007 [Eh]
	 Correlation Energy        =      -0.6665332626031182 [Eh]
	 Total Energy              =    -154.8121973021777649 [Eh]
	 SCS Total Energy          =    -154.8171218706415004 [Eh]
                               Psi4 1.9.1 release
    Molecular point group: c1

    Geometry (in Bohr), charge = 0, multiplicity = 1:

       Center              X                  Y                   Z               Mass
    ------------   -----------------  -----------------  -----------------  -----------------
         C            3.711522265884     2.346580644370    -0.280433467292    12.000000000000
         C            4.527609941793    -0.303843394534     0.330747425382    12.000000000000
         O            2.852947877496    -1.987013005849    -0.887024215207    15.994914619570
         H            3.381870881654    -3.689737503110    -0.562456194255     1.007825032230
         H            4.992892639225     3.722100952734     0.566167616366     1.007825032230
         H            1.809076393876     2.706924960329     0.433903795119     1.007825032230
         H            3.695030625987     2.638309004714    -2.322777654094     1.007825032230
         H            4.506269264659    -0.598389336531     2.388827361631     1.007825032230
         H            6.479286958822    -0.614555943534    -0.308909750276     1.007825032230
         C           -2.546024229377    -0.212072624703     2.242133591690    12.000000000000
         C           -3.173581488654    -0.421688605444    -0.518109991269    12.000000000000
         O           -5.597242171956     0.630029021049    -0.894843901914    15.994914619570
         H           -6.000362328491     0.554094156150    -2.659385120191     1.007825032230
         H           -0.677109657739    -1.005162333666     2.606166653046     1.007825032230
         H           -3.934916239805    -1.224555757380     3.383346757758     1.007825032230
         H           -2.558169499185     1.764662160749     2.837894319180     1.007825032230
         H           -3.120754194817    -2.414170478699    -1.105733558063     1.007825032230
         H           -1.735909977750     0.562505327134    -1.648107632783     1.007825032230

  Charge       = 0
  Multiplicity = 1
  Basis Set: AUG-CC-PVTZ
    Blend: AUG-CC-PVTZ
  Basis Set: (AUG-CC-PVTZ AUX)
    Blend: AUG-CC-PVTZ-JKFIT

    Orbital Energies [Eh]
    ---------------------

    Doubly Occupied:

       1A    -20.562000     2A    -20.545231     3A    -11.278967
       4A    -11.259082     5A    -11.214728     6A    -11.199813
       7A     -1.368881     8A     -1.351071     9A     -1.019305
      10A     -1.002529    11A     -0.838631    12A     -0.820848
      13A     -0.710344    14A     -0.692265    15A     -0.652089
      16A     -0.632688    17A     -0.580927    18A     -0.563270
      19A     -0.538374    20A     -0.531488    21A     -0.521488
      22A     -0.513104    23A     -0.495321    24A     -0.476480
      25A     -0.445857    26A     -0.427471

  @DF-RHF Final Energy:  -308.28919337983945

   => Energetics <=

    Nuclear Repulsion Energy =            251.5372403801526389
    One-Electron Energy =                -919.1683670910273349
    Two-Electron Energy =                 359.3419333310352499
    Total Energy =                       -308.2891933798394462
 Dipole X            :          1.0388122            0.0000094            1.0388216
 Dipole Y            :         -0.4351442            0.0000094           -0.4351348
 Dipole Z            :         -0.1481971            0.0000170           -0.1481800
 Magnitude           :                                                    1.1359797
  Basis Set: (AUG-CC-PVTZ AUX)
    Blend: AUG-CC-PVTZ-RI
	 Reference Energy          =    -308.2891933798394462 [Eh]
	 Singles Energy            =      -0.0000000000000000 [Eh]
	 Same-Spin Energy          =      -0.2987520018429066 [Eh]
	 Opposite-Spin Energy      =      -1.0390830066293697 [Eh]
	 Correlation Energy        =      -1.3378350084722763 [Eh]
	 Total Energy              =    -309.6270283883117145 [Eh]

	 ================> DF-SCS-MP2 Energies <==================
	-----------------------------------------------------------
	 SCS Same-Spin Scale       =       0.3333333333333333 [-]
	 SCS Opposite-Spin Scale   =       1.2000000000000000 [-]
	 SCS Same-Spin Energy      =      -0.0995840006143022 [Eh]
	 SCS Opposite-Spin Energy  =      -1.2468996079552437 [Eh]
	 SCS Correlation Energy    =      -1.3464836085695460 [Eh]
	 SCS Total Energy          =    -309.6356769884089886 [Eh]
	-----------------------------------------------------------

*** Psi4 exiting successfully. Buy a developer a beer!
