                               Psi4 1.9.1 release

  ==> Input File <==

--------------------------------------------------------------------------
MEMORY 10 GB

molecule dimer {
0 1
C   -1.767649   1.141140   0.537872
C   -1.786873   0.182956  -0.618586
O   -1.516247  -1.119461  -0.119937
H   -1.621686  -1.760111  -0.826386
H   -1.965418   2.157701   0.194608
H   -0.792472   1.123646   1.029813
H   -2.528051   0.869967   1.272228
H   -1.031102   0.470490  -1.364029
H   -2.763484   0.199082  -1.118537
--
0 1
C    2.285895   0.915613  -0.353139
C    1.768879  -0.497323  -0.253730
O    1.082855  -0.681934   0.959196
H    0.196679  -1.015150   0.760762
H    2.878054   1.060339  -1.259586
H    2.915318   1.146003   0.508561
H    1.457880   1.629245  -0.361193
H    2.606680  -1.206254  -0.316332
H    1.113226  -0.718106  -1.108490

units ang
no_reorient
no_com
symmetry c1
}

set {
basis        aug-cc-pVTZ
scf_type     df
}

energy("mp2", bsse_type="cp")
--------------------------------------------------------------------------

                               Psi4 1.9.1 release
    Molecular point group: c1
  Charge       = 0
  Multiplicity = 1
  Basis Set: AUG-CC-PVTZ
    Blend: AUG-CC-PVTZ
  Basis Set: (AUG-CC-PVTZ AUX)
    Blend: AUG-CC-PVTZ-JKFIT
  @DF-RHF Final Energy:  -154.14321242140622
    Total Energy =                       -154.1432124214062185
 Dipole X            :        -83.7213478           83.4490226           -0.2723252
 Dipole Y            :          3.7672065           -3.8732866           -0.1060801
 Dipole Z            :         -4.8881138            4.2633658           -0.6247481
 Magnitude           :                                                    0.6897276
  Basis Set: (AUG-CC-PVTZ AUX)
    Blend: AUG-CC-PVTZ-RI
	 Reference Energy          =    -154.1432124214062185 [Eh]
	 Singles Energy            =      -0.0000000000000000 [Eh]
	 Same-Spin Energy          =      -0.1482554332028324 [Eh]
	 Opposite-Spin Energy      =      -0.5189275946646271 [Eh]
	 Correlation Energy        =      -0.6671830278674595 [Eh]
	 Total Energy              =    -154.8103954492736705 [Eh]
	 SCS Total Energy          =    -154.8153440127380520 [Eh]
                               Psi4 1.9.1 release
    Molecular point group: c1
  Multiplicity = 1
  Basis Set: AUG-CC-PVTZ
    Blend: AUG-CC-PVTZ
  Basis Set: (AUG-CC-PVTZ AUX)
    Blend: AUG-CC-PVTZ-JKFIT
  @DF-RHF Final Energy:  -154.14558109291238
    Total Energy =                       -154.1455810929123800
  Basis Set: (AUG-CC-PVTZ AUX)
	 Singles Energy            =      -0.0000000000000000 [Eh]
	 Same-Spin Energy          =      -0.1481733696056614 [Eh]
	 Opposite-Spin Energy      =      -0.5188132734825666 [Eh]
	 Correlation Energy        =      -0.6669866430882280 [Eh]
	 Total Energy              =    -154.8125677360006023 [Eh]
	 SCS Total Energy          =    -154.8175481442933403 [Eh]
                               Psi4 1.9.1 release
    Molecular point group: c1

    Geometry (in Bohr), charge = 0, multiplicity = 1:

       Center              X                  Y                   Z               Mass
    ------------   -----------------  -----------------  -----------------  -----------------
         C           -3.340372495939     2.156442070805     1.016430770552    12.000000000000
         C           -3.376700590975     0.345736733009    -1.168958125042    12.000000000000
         O           -2.865291568547    -2.115474698131    -0.226648082309    15.994914619570
         H           -3.064542401489    -3.326127740406    -1.561643213913     1.007825032230
         H           -3.714101742045     4.077463950626     0.367755821823     1.007825032230
         H           -1.497555042094     2.123383201966     1.946064530436     1.007825032230
         H           -4.777324021190     1.643999368186     2.404162489139     1.007825032230
         H           -1.948500387412     0.889097244767    -2.577641237182     1.007825032230
         H           -5.222227912085     0.376210456508    -2.113728591191     1.007825032230
         C            4.319715501553     1.730257806909    -0.667335994218    12.000000000000
         C            3.342696859074    -0.939804265891    -0.479480209812    12.000000000000
         O            2.046299383583    -1.288668495638     1.812617740635    15.994914619570
         H            0.371669444629    -1.918355476259     1.437631826656     1.007825032230
         H            5.438733834278     2.003750310142    -2.380272571461     1.007825032230
         H            5.509152588617     2.165631808953     0.961041008089     1.007825032230
         H            2.754993923782     3.078826841272    -0.682555848432     1.007825032230
         H            4.925911296708    -2.279489697738    -0.597780844718     1.007825032230
         H            2.103692255739    -1.357023669048    -2.094742512809     1.007825032230

  Charge       = 0
  Multiplicity = 1
  Basis Set: AUG-CC-PVTZ
    Blend: AUG-CC-PVTZ
  Basis Set: (AUG-CC-PVTZ AUX)
    Blend: AUG-CC-PVTZ-JKFIT

    Orbital Energies [Eh]
    ---------------------

    Doubly Occupied:

       1A    -20.578064     2A    -20.528962     3A    -11.286912
       4A    -11.262137     5A    -11.215117     6A    -11.204925
       7A     -1.383590     8A     -1.340103     9A     -1.024950
      10A     -1.002552    11A     -0.845393    12A     -0.825008
      13A     -0.724159    14A     -0.695788    15A     -0.653887
      16A     -0.623220    17A     -0.591346    18A     -0.561105
      19A     -0.545048    20A     -0.541275    21A     -0.532179
      22A     -0.513865    23A     -0.502711    24A     -0.468725
      25A     -0.454980    26A     -0.421640

  @DF-RHF Final Energy:  -308.29125663733021

   => Energetics <=

    Nuclear Repulsion Energy =            262.3236422494790077
    One-Electron Energy =                -940.5745150947409456
    Two-Electron Energy =                 369.9596162079317310
    Total Energy =                       -308.2912566373302070
 Dipole X            :         -0.6616680            0.0000000           -0.6616680
 Dipole Y            :          0.0609472            0.0000151            0.0609623
 Dipole Z            :         -1.2158106           -0.0000132           -1.2158238
 Magnitude           :                                                    1.3855499
  Basis Set: (AUG-CC-PVTZ AUX)
    Blend: AUG-CC-PVTZ-RI
	 Reference Energy          =    -308.2912566373302070 [Eh]
	 Singles Energy            =      -0.0000000000000000 [Eh]
	 Same-Spin Energy          =      -0.3004698009508888 [Eh]
	 Opposite-Spin Energy      =      -1.0409606861986531 [Eh]
	 Correlation Energy        =      -1.3414304871495419 [Eh]
	 Total Energy              =    -309.6326871244797303 [Eh]

	 ================> DF-SCS-MP2 Energies <==================
	-----------------------------------------------------------
	 SCS Same-Spin Scale       =       0.3333333333333333 [-]
	 SCS Opposite-Spin Scale   =       1.2000000000000000 [-]
	 SCS Same-Spin Energy      =      -0.1001566003169629 [Eh]
	 SCS Opposite-Spin Energy  =      -1.2491528234383837 [Eh]
	 SCS Correlation Energy    =      -1.3493094237553467 [Eh]
	 SCS Total Energy          =    -309.6405660610855648 [Eh]
	-----------------------------------------------------------

*** Psi4 exiting successfully. Buy a developer a beer!
