                               Psi4 1.9.1 release

  ==> Input File <==

--------------------------------------------------------------------------
MEMORY 10 GB

molecule dimer {
0 1
C   -2.349038  -1.157925   0.034796
C   -2.056539   0.254134   0.474099
O   -1.466127   1.027122  -0.547162
H   -2.044202   1.012050  -1.314173
H   -2.772715  -1.745591   0.851689
H   -1.437215  -1.650556  -0.309185
H   -3.070166  -1.168403  -0.788025
H   -1.338097   0.256338   1.299576
H   -2.969983   0.735774   0.851362
--
0 1
C    1.812643   1.175608   0.267567
C    1.500073  -0.258318  -0.073084
O    2.656582  -1.052379  -0.216325
H    3.191286  -0.947763   0.574607
H    0.896190   1.767216   0.310822
H    2.472721   1.612217  -0.484809
H    2.313676   1.247640   1.238406
H    0.969069  -0.311788  -1.026278
H    0.822962  -0.686080   0.683636

units ang
no_reorient
no_com
symmetry c1
}

set {
basis        aug-cc-pVTZ
scf_type     df
}

energy("mp2", bsse_type="cp")
--------------------------------------------------------------------------

                               Psi4 1.9.1 release
    Molecular point group: c1
  Charge       = 0
  Multiplicity = 1
  Basis Set: AUG-CC-PVTZ
    Blend: AUG-CC-PVTZ
  Basis Set: (AUG-CC-PVTZ AUX)
    Blend: AUG-CC-PVTZ-JKFIT
  @DF-RHF Final Energy:  -154.14499230295843
    Total Energy =                       -154.1449923029584284
 Dipole X            :        -98.0511319           97.8780925           -0.1730394
 Dipole Y            :          0.8951689           -0.4419125            0.4532565
 Dipole Z            :         -0.8580516            1.3845683            0.5265167
 Magnitude           :                                                    0.7159636
  Basis Set: (AUG-CC-PVTZ AUX)
    Blend: AUG-CC-PVTZ-RI
	 Reference Energy          =    -154.1449923029584284 [Eh]
	 Singles Energy            =      -0.0000000000000000 [Eh]
	 Same-Spin Energy          =      -0.1482211073409769 [Eh]
	 Opposite-Spin Energy      =      -0.5183772679159692 [Eh]
	 Correlation Energy        =      -0.6665983752569460 [Eh]
	 Total Energy              =    -154.8115906782153672 [Eh]
	 SCS Total Energy          =    -154.8164520602379071 [Eh]
                               Psi4 1.9.1 release
    Molecular point group: c1
  Multiplicity = 1
  Basis Set: AUG-CC-PVTZ
    Blend: AUG-CC-PVTZ
  Basis Set: (AUG-CC-PVTZ AUX)
    Blend: AUG-CC-PVTZ-JKFIT
  @DF-RHF Final Energy:  -154.14514446450036
    Total Energy =                       -154.1451444645003619
  Basis Set: (AUG-CC-PVTZ AUX)
	 Singles Energy            =      -0.0000000000000000 [Eh]
	 Same-Spin Energy          =      -0.1482089446654921 [Eh]
	 Opposite-Spin Energy      =      -0.5183952513291198 [Eh]
	 Correlation Energy        =      -0.6666041959946118 [Eh]
	 Total Energy              =    -154.8117486604949704 [Eh]
	 SCS Total Energy          =    -154.8166217476504585 [Eh]
                               Psi4 1.9.1 release
    Molecular point group: c1

    Geometry (in Bohr), charge = 0, multiplicity = 1:

       Center              X                  Y                   Z               Mass
    ------------   -----------------  -----------------  -----------------  -----------------
         C           -4.439038478293    -2.188161123821     0.065754910261    12.000000000000
         C           -3.886295476323     0.480243659167     0.895917266353    12.000000000000
         O           -2.770578495139     1.940979277432    -1.033986326258    15.994914619570
         H           -3.862981925113     1.912497325270    -2.483427051471     1.007825032230
         H           -5.239671973949    -3.298688917064     1.609458954065     1.007825032230
         H           -2.715942733400    -3.119098794731    -0.584274972100     1.007825032230
         H           -5.801772899692    -2.207961674163    -1.489151430014     1.007825032230
         H           -2.528636859297     0.484408615548     2.455842719218     1.007825032230
         H           -5.612454467266     1.390411350233     1.608841013622     1.007825032230
         C            3.425398833228     2.221577150897     0.505628350210    12.000000000000
         C            2.834727138194    -0.488150273276    -0.138108744153    12.000000000000
         O            5.020212409821    -1.988708090183    -0.408795004090    15.994914619570
         H            6.030656528008    -1.791012501842     1.085849859771     1.007825032230
         H            1.693553656374     3.339554244527     0.587368453767     1.007825032230
         H            4.672765474668     3.046648584807    -0.916156233157     1.007825032230
         H            4.372213983045     2.357697903166     2.340248172124     1.007825032230
         H            1.831275006671    -0.589193929204    -1.939384348583     1.007825032230
         H            1.555172791659    -1.296503300154     1.291884809503     1.007825032230

  Charge       = 0
  Multiplicity = 1
  Basis Set: AUG-CC-PVTZ
    Blend: AUG-CC-PVTZ
  Basis Set: (AUG-CC-PVTZ AUX)
    Blend: AUG-CC-PVTZ-JKFIT

    Orbital Energies [Eh]
    ---------------------

    Doubly Occupied:

       1A    -20.561663     2A    -20.546460     3A    -11.278824
       4A    -11.261091     5A    -11.221523     6A    -11.203810
       7A     -1.369187     8A     -1.352995     9A     -1.019139
      10A     -1.001874    11A     -0.853952    12A     -0.836736
      13A     -0.694971    14A     -0.674662    15A     -0.633041
      16A     -0.619200    17A     -0.611752    18A     -0.602855
      19A     -0.549596    20A     -0.531303    21A     -0.530191
      22A     -0.512571    23A     -0.487425    24A     -0.469787
      25A     -0.448256    26A     -0.431684

  @DF-RHF Final Energy:  -308.28871860265610

   => Energetics <=

    Nuclear Repulsion Energy =            250.9284451697198506
    One-Electron Energy =                -917.8252265695628012
    Two-Electron Energy =                 358.6080627971867898
    Total Energy =                       -308.2887186026561039
 Dipole X            :         -0.8959099           -0.0000000           -0.8959099
 Dipole Y            :          0.1015827           -0.0000151            0.1015676
 Dipole Z            :          0.4457957           -0.0000000            0.4457957
 Magnitude           :                                                    1.0058351
  Basis Set: (AUG-CC-PVTZ AUX)
    Blend: AUG-CC-PVTZ-RI
	 Reference Energy          =    -308.2887186026561039 [Eh]
	 Singles Energy            =      -0.0000000000000000 [Eh]
	 Same-Spin Energy          =      -0.2988237191008797 [Eh]
	 Opposite-Spin Energy      =      -1.0391037206711076 [Eh]
	 Correlation Energy        =      -1.3379274397719874 [Eh]
	 Total Energy              =    -309.6266460424280922 [Eh]

	 ================> DF-SCS-MP2 Energies <==================
	-----------------------------------------------------------
	 SCS Same-Spin Scale       =       0.3333333333333333 [-]
	 SCS Opposite-Spin Scale   =       1.2000000000000000 [-]
	 SCS Same-Spin Energy      =      -0.0996079063669599 [Eh]
	 SCS Opposite-Spin Energy  =      -1.2469244648053290 [Eh]
	 SCS Correlation Energy    =      -1.3465323711722890 [Eh]
	 SCS Total Energy          =    -309.6352509738284198 [Eh]
	-----------------------------------------------------------

*** Psi4 exiting successfully. Buy a developer a beer!
